<?xml version="1.0"?>
<VTKFile type="UnstructuredGrid"  version="0.1"  >
<UnstructuredGrid>
<Piece  NumberOfPoints="10016" NumberOfCells="19520">
<Points>
<DataArray  type="Float64"  NumberOfComponents="3"  format="ascii">4.965882134545785e-23 9.999999999999972e-07 2.131013858730117e-10  4.967082817620118e-23 9.999999999999972e-07 1.049534689498666e-10  4.965098371686593e-23 9.998969993079911e-07 1.806957762789407e-10  4.964683486453523e-23 9.999999999999972e-07 3.210660079061538e-10  4.963928094281055e-23 9.998928151283132e-07 2.819208143511568e-10  4.963518268876098e-23 9.999999999999972e-07 4.260194768560998e-10  4.96274502693978e-23 9.998912733244546e-07 3.869402432389603e-10  4.96235103204718e-23 9.999999999999972e-07 5.31154823811502e-10  4.961646649818389e-23 9.998950814042031e-07 4.896813388795724e-10  4.961134681207764e-23 9.999999999999972e-07 6.407139675543703e-10  4.960551587706572e-23 9.998984968509009e-07 5.917312119519161e-10  4.959804858519994e-23 9.999999999999972e-07 7.604937467765757e-10  4.959397099627827e-23 9.999008892025507e-07 6.981106052264079e-10  4.958631038097335e-23 9.999999999999972e-07 8.662220911382774e-10  4.958168164519997e-23 9.998997843553723e-07 8.076983919218066e-10  4.957439975359272e-23 9.999999999999972e-07 9.73503485204662e-10  4.956944998760152e-23 9.999002325489919e-07 9.183195627464037e-10  4.956265137445577e-23 9.999999999999972e-07 1.079323477011368e-09  4.955701160829944e-23 9.999001231667993e-07 1.030245141333686e-09  4.955037124746373e-23 9.999999999999972e-07 1.189933027702161e-09  4.954504260456674e-23 9.998982844091941e-07 1.136213585229598e-09  4.953795753895248e-23 9.999999999999972e-07 1.301745773753337e-09  4.95326570268601e-23 9.998976157823142e-07 1.24710432463861e-09  4.952580296646326e-23 9.999999999999972e-07 1.411224430019871e-09  4.952079240654446e-23 9.998976103117896e-07 1.353965853378831e-09  4.951351198014521e-23 9.999999999999972e-07 1.521931792823871e-09  4.950848465901949e-23 9.998983522683755e-07 1.465566144299132e-09  4.950168439780321e-23 9.999999999999972e-07 1.628465183680133e-09  4.949596083982465e-23 9.998951804729e-07 1.575198883741935e-09  4.948986314853799e-23 9.999999999999972e-07 1.734941531251957e-09  4.948419816326444e-23 9.998943331654061e-07 1.680300347794794e-09  4.947802539128562e-23 9.999999999999972e-07 1.841566569553224e-09  4.947204082171488e-23 9.998946655509252e-07 1.790136331058826e-09  4.946621431693076e-23 9.999999999999972e-07 1.94795126968005e-09  4.946020709617708e-23 9.99892108100797e-07 1.894167604775536e-09  4.945456214115651e-23 9.999999999999972e-07 2.052904738629989e-09  4.944888902898389e-23 9.9989413409941e-07 1.998137689776096e-09  4.944221288381585e-23 9.999999999999972e-07 2.164136960145399e-09  4.943686726214237e-23 9.998955439939779e-07 2.107830033679632e-09  4.943011658234924e-23 9.999999999999972e-07 2.273090757700524e-09  4.942418563548505e-23 9.99894345271597e-07 2.220857249475358e-09  4.941823437199785e-23 9.999999999999972e-07 2.380116193922254e-09  4.941259591656728e-23 9.998933798797915e-07 2.324282765268723e-09  4.940646775074202e-23 9.999999999999972e-07 2.48610049612861e-09  4.940047976189092e-23 9.998932541666663e-07 2.433289671514713e-09  4.939334365366697e-23 9.999999999999972e-07 2.604311853522124e-09  4.938867733384375e-23 9.998981132890019e-07 2.544455614960977e-09  4.938133030301396e-23 9.999999999999972e-07 2.712518496570946e-09  4.937643184836779e-23 9.998987075647537e-07 2.655347418365747e-09  4.93696781272397e-23 9.999999999999972e-07 2.817471965520892e-09  4.936367840386018e-23 9.998961942793014e-07 2.767706948777752e-09  4.935697264094385e-23 9.999999999999972e-07 2.931912812216023e-09  4.935191827886016e-23 9.99893157186426e-07 2.870595645038234e-09  4.934490241972922e-23 9.999999999999972e-07 3.040631699744974e-09  4.933898856026648e-23 9.998933005028144e-07 2.987199513107585e-09  4.933323591259946e-23 9.999999999999972e-07 3.145714254069566e-09  4.932743645501888e-23 9.998952588225388e-07 3.093209946608827e-09  4.932044252956645e-23 9.999999999999972e-07 3.260946804190154e-09  4.9315403508462e-23 9.998982685853218e-07 3.204602856651364e-09  4.930877040695903e-23 9.999999999999972e-07 3.366079938240913e-09  4.930288707006424e-23 9.998981531409161e-07 3.317225466853973e-09  4.929668578862329e-23 9.999999999999972e-07 3.474928503508399e-09  4.929127171549851e-23 9.99897799432636e-07 3.421493571561815e-09  4.928393544307666e-23 9.999999999999972e-07 3.589773406413738e-09  4.927841396730108e-23 9.99894288617495e-07 3.533795056402489e-09  4.927173564470792e-23 9.999999999999972e-07 3.699659421188589e-09  4.926617894837817e-23 9.998938547822628e-07 3.643564474494327e-09  4.925921027606022e-23 9.999999999999972e-07 3.812477912337564e-09  4.925329327689987e-23 9.998919789341237e-07 3.757752436891448e-09  4.924688626668909e-23 9.999999999999972e-07 3.923482720360642e-09  4.924086338452027e-23 9.998939375081047e-07 3.871669528250443e-09  4.923407282833215e-23 9.999999999999972e-07 4.0388959127799e-09  4.922834416742477e-23 9.998971905087777e-07 3.987685611815999e-09  4.922225550927649e-23 9.999999999999972e-07 4.145336860171053e-09  4.921612427779543e-23 9.998961547760789e-07 4.096716859879607e-09  4.920979863216278e-23 9.999999999999972e-07 4.257538434426062e-09  4.920413545292229e-23 9.998948120005688e-07 4.203359818832004e-09  4.919634338725736e-23 9.999999999999972e-07 4.378732506310539e-09  4.91917602287651e-23 9.998984076434729e-07 4.318421571542116e-09  4.91841453417381e-23 9.999999999999972e-07 4.488602732820964e-09  4.917935448999469e-23 9.998964790201501e-07 4.42823390922657e-09  4.917249316596384e-23 9.999999999999972e-07 4.59355620177091e-09  4.916647063218494e-23 9.998933076729775e-07 4.541110036516295e-09  4.916057557547633e-23 9.999999999999972e-07 4.700900313928368e-09  4.915498820682143e-23 9.998920898148982e-07 4.64331667161374e-09  4.914884433435662e-23 9.999999999999972e-07 4.806565940198996e-09  4.914277769993321e-23 9.99888689551642e-07 4.749898876901129e-09  4.913691656895875e-23 9.999999999999972e-07 4.914001699801453e-09  4.913086662358446e-23 9.998933258127582e-07 4.861820576028981e-09  4.912417652637589e-23 9.999999999999972e-07 5.02875380185916e-09  4.911855400084297e-23 9.998965027853393e-07 4.975899794991126e-09  4.911208160507638e-23 9.999999999999972e-07 5.137695167974278e-09  4.910648032202423e-23 9.998974164922569e-07 5.085563532766849e-09  4.910040546388341e-23 9.999999999999972e-07 5.242864498225818e-09  4.909438158163567e-23 9.998985612193588e-07 5.195684025279884e-09  4.908692019192959e-23 9.999999999999972e-07 5.364329029718207e-09  4.908248157270506e-23 9.998974357663855e-07 5.301744323877852e-09  4.907515617966779e-23 9.999999999999972e-07 5.470289832195496e-09  4.907004184132386e-23 9.998960836027688e-07 5.412439299487027e-09  4.906247463312233e-23 9.999999999999972e-07 5.584515048788741e-09  4.905722680501922e-23 9.998968876945172e-07 5.528670976688059e-09  4.905075664085686e-23 9.999999999999972e-07 5.690061339989314e-09  4.904484851716334e-23 9.998950512880538e-07 5.638328275375082e-09  4.90388258015151e-23 9.999999999999972e-07 5.797524787216834e-09  4.903321302856425e-23 9.998936960698588e-07 5.741776221418337e-09  4.902709763433928e-23 9.999999999999972e-07 5.903162725862398e-09  4.902137674591305e-23 9.998954181391909e-07 5.850110047025269e-09  4.901486932734723e-23 9.999999999999972e-07 6.013305523487872e-09  4.900996903583551e-23 9.998983315609181e-07 5.9557749864611e-09  4.900238358687486e-23 9.999999999999972e-07 6.125767075765509e-09  4.899731722266155e-23 9.998986313778074e-07 6.070032205542058e-09  4.899073141110061e-23 9.999999999999972e-07 6.230720544715455e-09  4.898514012365184e-23 9.998953274323083e-07 6.176409817168223e-09  4.897907923532636e-23 9.999999999999972e-07 6.335674013665394e-09  4.897318738928258e-23 9.998930797666336e-07 6.28182281159635e-09  4.89673066150515e-23 9.999999999999972e-07 6.441712350231434e-09  4.896150497515263e-23 9.998961182925383e-07 6.390087169346064e-09  4.895543040371914e-23 9.999999999999972e-07 6.548683752093487e-09  4.89501441466522e-23 9.998982473796315e-07 6.494545502441531e-09  4.894364760853392e-23 9.999999999999972e-07 6.654813736104525e-09  4.893841583205424e-23 9.998970052058862e-07 6.598942595202283e-09  4.893178157211191e-23 9.999999999999972e-07 6.761693490521573e-09  4.892653626952659e-23 9.99896354656094e-07 6.705293632155707e-09  4.891998860201634e-23 9.999999999999972e-07 6.86791512197761e-09  4.891445763983496e-23 9.998958243290268e-07 6.813557929445341e-09  4.890813274050469e-23 9.999999999999972e-07 6.974703228949653e-09  4.890231037543154e-23 9.998944952076616e-07 6.921641638961701e-09  4.889632959549876e-23 9.999999999999972e-07 7.081016507850701e-09  4.889053860927254e-23 9.99896818590432e-07 7.029995665106389e-09  4.888432260744964e-23 9.999999999999972e-07 7.18916584165838e-09  4.887928672857366e-23 9.998988029964962e-07 7.133328002616035e-09  4.887248725306449e-23 9.999999999999972e-07 7.295769236855886e-09  4.886690814235846e-23 9.998970339664384e-07 7.243055365090584e-09  4.886022396497455e-23 9.999999999999972e-07 7.406227116200258e-09  4.885534946644165e-23 9.998975042439787e-07 7.347636939734546e-09  4.884804169425722e-23 9.999999999999972e-07 7.515955255926421e-09  4.884296510625107e-23 9.998937532003507e-07 7.455434295985567e-09  4.883618360663033e-23 9.999999999999972e-07 7.622763413962017e-09  4.883055270301148e-23 9.998934137946383e-07 7.566895879482343e-09  4.882439286265e-23 9.999999999999972e-07 7.728964994354507e-09  4.881854008772649e-23 9.998959100178791e-07 7.677592122165583e-09  4.881274068687575e-23 9.999999999999972e-07 7.833918463304453e-09  4.880697784963158e-23 9.998973883878604e-07 7.783213874498589e-09  4.880087258164428e-23 9.999999999999972e-07 7.940816851900514e-09  4.87957149314054e-23 9.998999337615025e-07 7.887206596793702e-09  4.878828549749057e-23 9.999999999999972e-07 8.054191226909213e-09  4.87836806690754e-23 9.999009217926022e-
[...]
<PointData  Tensors="f_58"> 
<DataArray  type="Float64"  Name="f_58"  NumberOfComponents="9" format="ascii">2.5019425121545496e-24 4.7464493024026994e-19 4.7456711609573150e-19 4.7464493024026994e-19 -2.3249438286603136e-06 2.2419311727737797e-08 4.7456711609573150e-19 2.2419311727737797e-08 3.7715574694317922e-06  1.1585728261630888e-23 4.7458951058124197e-19 4.7451025604667282e-19 4.7458951058124197e-19 -1.8685886382166855e-06 2.7907604654645249e-07 4.7451025604667282e-19 2.7907604654645249e-07 3.8544634946078529e-06  -1.9604223799725409e-23 4.7467429121226702e-19 4.7459995307968577e-19 4.7467429121226702e-19 -1.5432041367348619e-06 -1.3999459652675046e-07 4.7459995307968577e-19 -1.3999459652675046e-07 2.6023716871995467e-06  -2.6273330554996246e-24 4.7472647860413438e-19 4.7463869243231376e-19 4.7472647860413438e-19 -2.1734139461151755e-06 6.7150997651222507e-08 4.7463869243231376e-19 6.7150997651222507e-08 3.8891310140694201e-06  4.0036944964187396e-24 4.7469726394191035e-19 4.7461554575835319e-19 4.7469726394191035e-19 -1.8663969013364647e-06 -3.1706597203986997e-07 4.7461554575835319e-19 -3.1706597203986997e-07 2.7043688887899642e-06  7.3304103046816624e-25 4.7480780605866366e-19 4.7470057800453414e-19 4.7480780605866366e-19 -1.9612473067657608e-06 -1.4756370517602917e-08 4.7470057800453414e-19 -1.4756370517602917e-08 3.8633834612201745e-06  -8.8564447410035733e-25 4.7481847442007445e-19 4.7472130079466480e-19 4.7481847442007445e-19 -1.4454896190906413e-06 -4.4628035224941844e-07 4.7472130079466480e-19 -4.4628035224941844e-07 2.3034533233310499e-06  -2.8710552732158697e-25 4.7495232795128793e-19 4.7484025611179612e-19 4.7495232795128793e-19 -1.6753626417886196e-06 -1.4657124040231997e-07 4.7484025611179612e-19 -1.4657124040231997e-07 3.4011269359110419e-06  4.5114887885827007e-25 4.7496293229686054e-19 4.7485499210356415e-19 4.7496293229686054e-19 -1.0009801022534920e-06 -6.5820146377179982e-07 4.7485499210356415e-19 -6.5820146377179982e-07 1.6290548332347706e-06  8.4329322524191010e-26 4.7511333600438293e-19 4.7501221832612923e-19 4.7511333600438293e-19 -1.3689157349174631e-06 -3.3251937443736681e-07 4.7501221832612923e-19 -3.3251937443736681e-07 2.5254511366701526e-06  -8.0217007371302950e-26 4.7512034434696704e-19 4.7500062181633222e-19 4.7512034434696704e-19 -5.9350570634736394e-07 -9.5006265593239308e-07 4.7500062181633222e-19 -9.5006265593239308e-07 8.5010976743826849e-07  -1.4094029190113540e-26 4.7530489101351326e-19 4.7523209899764782e-19 4.7530489101351326e-19 -4.4482090078091484e-07 -3.5932581730652264e-07 4.7523209899764782e-19 -3.5932581730652264e-07 1.0374736432996396e-06  -6.4515241695745009e-27 4.7530253763337852e-19 4.7518178031171916e-19 4.7530253763337852e-19 -3.0217477218787626e-08 -1.2247423005569303e-06 4.7518178031171916e-19 -1.2247423005569303e-06 -2.4389660946827178e-07  1.5387776597808430e-27 4.7550885947415504e-19 4.7546852308771919e-19 4.7550885947415504e-19 5.5142769312762479e-07 -4.4508039459696734e-07 4.7546852308771919e-19 -4.4508039459696734e-07 -7.1495275283246658e-07  2.9011600933185606e-27 4.7549417059225239e-19 4.7538812216719212e-19 4.7549417059225239e-19 8.6202816741473123e-07 -1.4720095660693979e-06 4.7538812216719212e-19 -1.4720095660693979e-06 -1.8956487064362378e-06  -9.2563269474473092e-29 4.7571996054110362e-19 4.7573040006300392e-19 4.7571996054110362e-19 1.7350979549891129e-06 -4.2415775300416990e-07 4.7573040006300392e-19 -4.2415775300416990e-07 -2.7714751694344657e-06  -1.1704052669204797e-27 4.7571349586806084e-19 4.7561424363902401e-19 4.7571349586806084e-19 1.9015207334215609e-06 -1.8745702720406385e-06 4.7561424363902401e-19 -1.8745702720406385e-06 -3.8626920683137079e-06  1.2001229604847489e-28 4.7595121238774030e-19 4.7600636700322483e-19 4.7595121238774030e-19 2.9922469068507049e-06 -5.6886990110486908e-07 4.7600636700322483e-19 -5.6886990110486908e-07 -5.1235639304282283e-06  6.0314275252204561e-29 4.7596363105476210e-19 4.7588153930135092e-19 4.7596363105476210e-19 3.2927552533800563e-06 -2.2851437716744170e-06 4.7588153930135092e-19 -2.2851437716744170e-06 -6.3842092366859839e-06  9.0797324516762415e-29 4.7620700655238072e-19 4.7632288880147112e-19 4.7620700655238072e-19 4.6766460794588202e-06 -7.1581864699191378e-07 4.7632288880147112e-19 -7.1581864699191378e-07 -8.1958323886871069e-06  -3.9840727865254115e-28 4.7622516138762055e-19 4.7616899668816108e-19 4.7622516138762055e-19 4.7982257118792870e-06 -2.7028620787370752e-06 4.7616899668816108e-19 -2.7028620787370752e-06 -9.1921765879073973e-06  -1.7883708943295053e-29 4.7649268373228364e-19 4.7667384669875354e-19 4.7649268373228364e-19 6.5856557006165630e-06 -9.0026545046114942e-07 4.7667384669875354e-19 -9.0026545046114942e-07 -1.1649728483508590e-05  8.3379237893868935e-29 4.7651907304754058e-19 4.7650210339676259e-19 4.7651907304754058e-19 6.7077459663314824e-06 -3.0591266580502689e-06 4.7650210339676259e-19 -3.0591266580502689e-06 -1.2520301225874826e-05  4.4730568687146380e-29 4.7680338691275043e-19 4.7707788858071567e-19 4.7680338691275043e-19 8.9182780661488403e-06 -9.4050456538433334e-07 4.7707788858071567e-19 -9.4050456538433334e-07 -1.5744269643590741e-05  -7.2620658341115126e-29 4.7682322269467394e-19 4.7684493923714428e-19 4.7682322269467394e-19 8.7870448408403633e-06 -3.5089424192342917e-06 4.7684493923714428e-19 -3.5089424192342917e-06 -1.6196140128480029e-05  1.8271448800762671e-29 4.7711060160188891e-19 4.7748624215234578e-19 4.7711060160188891e-19 1.1268321243615858e-05 -9.9514474199687985e-07 4.7748624215234578e-19 -9.9514474199687985e-07 -2.0025549306649011e-05  -6.9018855124375147e-29 4.7714166155825127e-19 4.7721659034702401e-19 4.7714166155825127e-19 1.1140451203863104e-05 -3.9913757843536412e-06 4.7721659034702401e-19 -3.9913757843536412e-06 -2.0472999832948554e-05  -4.9254965695036143e-30 4.7741699560729549e-19 4.7789541029853687e-19 4.7741699560729549e-19 1.3865715863102273e-05 -1.1295871032234124e-06 4.7789541029853687e-19 -1.1295871032234124e-06 -2.4743242970500876e-05  4.5166810941614445e-30 4.7746699136051592e-19 4.7761022130728785e-19 4.7746699136051592e-19 1.3659257392804501e-05 -4.4083914849790481e-06 4.7761022130728785e-19 -4.4083914849790481e-06 -2.5056241705792122e-05  3.2530293683758742e-31 4.7776220316929876e-19 4.7835023565414547e-19 4.7776220316929876e-19 1.6857062830343878e-05 -1.2341302177565580e-06 4.7835023565414547e-19 -1.2341302177565580e-06 -2.9918374779496202e-05  5.6610335746028331e-30 4.7780820590828610e-19 4.7802244391712568e-19 4.7780820590828610e-19 1.6422610321893064e-05 -4.8535792847880340e-06 4.7802244391712568e-19 -4.8535792847880340e-06 -2.9989137758121825e-05  1.8557263807979615e-30 4.7808711373319351e-19 4.7879047697841222e-19 4.7808711373319351e-19 1.9759846790907456e-05 -1.4272831937186346e-06 4.7879047697841222e-19 -1.4272831937186346e-06 -3.5285078977607547e-05  -5.9782490698469527e-30 4.7815461015860598e-19 4.7845118165272651e-19 4.7815461015860598e-19 1.9270009220041760e-05 -5.3073996111560867e-06 4.7845118165272651e-19 -5.3073996111560867e-06 -3.5227365526961645e-05  -6.3291699999398413e-31 4.7841835117737112e-19 4.7926648590521787e-19 4.7841835117737112e-19 2.3096142319669562e-05 -1.5015525259160949e-06 4.7926648590521787e-19 -1.5015525259160949e-06 -4.1377884349432240e-05  5.9109523900577893e-31 4.7848378523612404e-19 4.7888654432643261e-19 4.7848378523612404e-19 2.2356384068455100e-05 -5.5712430905562859e-06 4.7888654432643261e-19 -5.5712430905562859e-06 -4.0754333002349277e-05  -1.6557146490228393e-31 4.7876301309208490e-19 4.7975543868840136e-19 4.7876301309208490e-19 2.6495115585073359e-05 -1.5765062054212964e-06 4.7975543868840136e-19 -1.5765062054212964e-06 -4.7526078184138199e-05  7.5288643727788167e-31 4.7882679681882630e-19 4.7933125897482794e-19 4.7882679681882630e-19 2.5599843035696634e-05 -5.9660471038416310e-06 4.7933125897482794e-19 -5.9660471038416310e-06 -4.6619519553003913e-05  7.6722791021026304e-32 4.7912082381979256e-19 4.8027355703678642e-19 4.7912082381979256e-19 3.0273601694527847e-05 -1.6290567207043286e-06 4.8027355703678642e-19 -1.6290567207043286e-06 -5.4297510685016192e-05  -1.1779066148897908e-31 4.7918234395659000e-19 4.7981244532983933e-19 4.7918234395659000e-19 2.9193076218492912e-05 -6.2692634246746344e-06 4.7981244532983933e-19 -6.2692634246746344e-06 -5.3082500308222407e-05  -6.1592386791664647e-33 4.7945641702706917e-19 4.8076796643013752e-19 4.7945641702706917e-19 3.4129122577844208e-05 -1.7995095928788333e-06 4.8076796643013752e-19 -1.7995095928788333e-06 -6.1354915375387816e-05  -1.0425640554127123e-32 4.7954847538824681e-19 4.8030801679653540e-19 4.7954847538824681e-19 3.3068834881932247e-05 -6.6018380198426089e-06 4.8030801679653540e-19 -6.6018380198426089e-06 -5.9955192537792449e-05  1.8898764057496871e-33 4.7981846439883596e-19 4.8129648115991818e-19 4.7981846439883596e-19 3.8294367875610274e-05 -1.8676663567447716e-06 4.8129648115991818e-19 -1.8676663567447716e-06 -6.8655283529680703e-05  -2.1248825084005150e-32 4.7990424498076781e-19 4.8080518742766231e-19 4.7990424498076781e-19 3.6899752119499419e-05 -6.9435046831279247e-06 4.8080518742766231e-19 -6.9435046831279247e-06 -6.7016697758274347e-05  -2.8339746593148838e-33 4.8017129604245908e-19 4.8184723905334108e-19 4.8017129604245908e-19 4.2619827065776664e-05 -1.9872183753974169e-06 4.8184723905334108e-19 -1.9872183753974169e-06 -7.6785369090528178e-05  9.5740111770796434e-33 4.8025936569461290e-19 4.8130787128346625e-19 4.8025936569461290e-19 4.1026359993800377e-05 -7.1853471567922875e-06 4.8130787128346625e-19 -7.1853471567922875e-06 -7.4285251821933095e-05  1.1215433591397375e-33 4.8054648926730895e-19 4.8240694365157279e-19 4.8054648926730895e-19 4.7164123846362755e-05 -2.0441444075693348e-06 4.8240694365157279e-19 -2.0441444075693348e-06 -8.4767379350612416e-05  -2.0167625944634654e-33 4.8062852260023200e-19 4.8185574391182503e-19 4.8062852260023200e-19 4.5450363529684471e-05 -7.3713559607348220e-06 4.8185574391182503e-19 -7.3713559607348220e-06 -8.2300729221270643e-05  -1.4784909982664583e-34 4.8092080026391641e-19 4.8301169934436441e-19 4.8092080026391641e-19 5.1943231301169441e-05 -1.9408584652627563e-06 4.8301169934436441e-19 -1.9408584652627563e-06 -9.3491237501174519e-05  -4.6882036051085687e-34 4.8100868678836020e-19 4.8241091590315478e-19 4.8100868678836020e-19 5.0175879348873502e-05 -7.6082852943841725e-06 4.8241091590315478e-19 -7.6082852943841725e-06 -9.0652764018091304e-05  -6.0518284824857821e-35 4.8126193730797197e-19 4.8352850216472842e-19 4.8126193730797197e-19 5.6665964713869059e-05 -2.3589860817628929e-06 4.8352850216472842e-19 -2.3589860817628929e-06 -1.0221473945638062e-04  6.2916628707125589e-34 4.8137658382530090e-19 4.8293989394937199e-19 4.8137658382530090e-19 5.4794685524998093e-05 -8.0334190312792855e-06 4.8293989394937199e-19 -8.0334190312792855e-06 -9.9023615156843342e-05  5.6783893744893441e-35 4.8162623951644002e-19 4.8413466276003761e-19 4.8162623951644002e-19 6.1936902506401424e-05 -2.2268076628121065e-06 4.8413466276003761e-19 -2.2268076628121065e-06 -1.1157825377291133e-04  -2.0186841164156106e-34 4.8173048651621880e-19 4.8345917221874348e-19 4.8173048651621880e-19 5.9516937191229940e-05 -8.5348321466652973e-06 4.8345917221874348e-19 -8.5348321466652973e-06 -1.0772783462784879e-04  -2.4052913786127074e-35 4.8196951625217648e-19 4.8469759206982505e-19 4.8196951625217648e-19 6.7354658164032991e-05 -2.3348190689387228e-06 4.8469759206982505e-19 -2.3348190689387228e-06 -1.2116894123912756e-04  6.3385291175363453e-35 4.8210167338017439e-19 4.8402875888192958e-19 4.8210167338017439e-19 6.4830455197434936e-05 -8.7884922955330483e-06 4.8402875888192958e-19 -8.7884922955330483e-06 -1.1712272597734933e-04  7.0057935519633611e-36 4.8231894349893939e-19 4.8528308681751728e-19 4.8231894349893939e-19 7.2665405786797281e-05 -2.4330617198830956e-06 4.8528308681751728e-19 -2.4330617198830956e-06 -1.3092878821485576e-04  -1.1194016999297277e-35 4.8242620145809961e-19 4.8459004571351607e-19 4.8242620145809961e-19 6.9933216994840102e-05 -8.8048010284777222e-06 4.8459004571351607e-19 -8.8048010284777222e-06 -1.2652317177521143e-04  -2.3727307519771099e-36 4.8265237127353720e-19 4.8586800839205414e-19 4.8265237127353720e-19 7.8346074401614466e-05 -2.3090816378836568e-06 4.8586800839205414e-19 -2.3090816378836568e-06 -1.4089200619645832e-04  3.2083986828716805e-36 4.8275706495588088e-19 4.8513493970492951e-19 4.8275706495588088e-19 7.5287222183757137e-05 -8.9480359113341698e-06 4.8513493970492951e-19 -8.9480359113341698e-06 -1.3601927734072704e-04  -1.6539325057068163e-37 4.8295161507698172e-19 4.8642488286782351e-19 4.8295161507698172e-19 8.3757351115385537e-05 -2.3427873836265976e-06 4.8642488286782351e-19 -2.3427873836265976e-06 -1.5101175598986231e-04  1.1733688896990710e-36 4.8308168246579770e-19 4.8567135048740506e-19 4.8308168246579770e-19 8.0860933630463178e-05 -9.2763141867707814e-06 4.8567135048740506e-19 -9.2763141867707814e-06 -1.4606487375284558e-04  -1.3755777236751956e-37 4.8326708737249715e-19 4.8697081206141480e-19 4.8326708737249715e-19 8.9408619754713703e-05 -2.5331786304915598e-06 4.8697081206141480e-19 -2.5331786304915598e-06 -1.6119534953271559e-04  7.0141316282680979e-37 4.8340520402030585e-19 4.8620476856514263e-19 4.8340520402030585e-19 8.6384034260940972e-05 -9.6198664091348159e-06 4.8620476856514263e-19 -9.6198664091348159e-06 -1.5605623844244074e-04  8.4071464098398094e-38 4.8359726320776213e-19 4.8755967689653668e-19 4.8359726320776213e-19 9.5609764392648190e-05 -2.7543889140690663e-06 4.8755967689653668e-19 -2.7543889140690663e-06 -1.7249904147128404e-04  -1.3062686336530132e-37 4.8373290371927147e-19 4.8675632960869613e-19 4.8373290371927147e-19 9.2307307059420814e-05 -9.8607334103622507e-06 4.8675632960869613e-19 -9.8607334103622507e-06 -1.6649397271721172e-04  5.4117960523031702e-39 4.8388750727335216e-19 4.8813563063276063e-19 4.8388750727335216e-19 1.0178673420012700e-04 -2.6527260437851197e-06 4.8813563063276063e-19 -2.6527260437851197e-06 -1.8361957340617082e-04  -8.8005031748693893e-38 4.8405929566342415e-19 4.8729741691208411e-19 4.8405929566342415e-19 9.8265687091755774e-05 -1.0298404433228588e-05 4.8729741691208411e-19 -1.0298404433228588e-05 -1.7719530255284123e-04  -1.7544512625927101e-38 4.8419610097624671e-19 4.8871374692858815e-19 4.8419610097624671e-19 1.0836870376159124e-04 -2.7609929772709757e-06 4.8871374692858815e-19 -2.7609929772709757e-06 -1.9527336422240697e-04  4.2267271443118641e-38 4.8434039537130879e-19 4.8784091887539950e-19 4.8434039537130879e-19 1.0439074401312687e-04 -1.0487809191177865e-05 4.8784091887539950e-19 -1.0487809191177865e-05 -1.8842618778816824e-04  -4.6649199424982665e-39 4.8447240747068968e-19 4.8929468309488694e-19 4.8447240747068968e-19 1.1495065275758240e-04 -2.6825500812081101e-06 4.8929468309488694e-19 -2.6825500812081101e-06 -2.0718614773959868e-04  2.0688027202874556e-38 4.8461538444418133e-19 4.8838591232755036e-19 4.8461538444418133e-19 1.1069215657981361e-04 -1.0599676154691990e-05 4.8838591232755036e-19 -1.0599676154691990e-05 -1.9981530077122284e-04  3.9047645039940533e-39 4.8473860081104725e-19 4.8981332681178411e-19 4.8473860081104725e-19 1.2151530387055353e-04 -2.9129076608054457e-06 4.8981332681178411e-19 -2.9129076608054457e-06 -2.1875925569408828e-04  -3.7251952614140384e-39 4.8489230927262127e-19 4.8895771813533931e-19 4.8489230927262127e-19 1.1724099127289448e-04 -1.0608092544474616e-05 4.8895771813533931e-19 -1.0608092544474616e-05 -2.1169307171795454e-04  3.1157254240571839e-39 4.8497527032464181e-19 4.9034433778087603e-19 4.8497527032464181e-19 1.2789700891079577e-04 -2.9572028357394179e-06 4.9034433778087603e-19 -2.9572028357394179e-06 -2.3053193536350062e-04  -8.5411388668661424e-39 4.8514334992500085e-19 4.8947849421966503e-19 4.8514334992500085e-19 1.2370068096722621e-04 -1.0693518957484276e-05 4.8947849421966503e-19 -1.0693518957484276e-05 -2.2318273580514340e-04  1.1451660233309511e-39 4.8521476615719344e-19 4.9091841978406327e-19 4.8521476615719344e-19 1.3480053194847065e-04 -2.8856802519506901e-06 4.9091841978406327e-19 -2.8856802519506901e-06 -2.4331978184103812e-04  -3.4532558019284417e-39 4.8535496803013959e-19 4.8994290370812481e-19 4.8535496803013959e-19 1.2989505349221163e-04 -1.0906276732025623e-05 4.8994290370812481e-19 -1.0906276732025623e-05 -2.3435650859807356e-04  4.6508997166973029e-40 4.8543602184100852e-19 4.9141672388795711e-19 4.8543602184100852e-19 1.4177321722983407e-04 -3.0988767576767623e-06 4.9141672388795711e-19 -3.0988767576767623e-06 -2.5570972078016647e-04  -1.6545551591475001e-39 4.8558521113185014e-19 4.9044522546039361e-19 4.8558521113185014e-19 1.3669767674435800e-04 -1.1091710655496445e-05 4.9044522546039361e-19 -1.1091710655496445e-05 -2.4643133293116200e-04  1.0341812950035866e-40 4.8560719302453582e-19 4.9194156185853628e-19 4.8560719302453582e-19 1.4824504114967086e-04 -2.8586505965310869e-06 4.9194156185853628e-19 -2.8586505965310869e-06 -2.6807218682287472e-04  -6.0060670031594373e-40 4.8578764555007572e-19 4.9093249875380791e-19 4.8578764555007572e-19 1.4339734152487142e-04 -1.1255118343782720e-05 4.9093249875380791e-19 -1.1255118343782720e-05 -2.5858901409418344e-04  -1.0557980737953795e-40 4.8577479177089526e-19 4.9238235707970654e-19 4.8577479177089526e-19 1.5512174579763286e-04 -3.1356184183652243e-06 4.9238235707970654e-19 -3.1356184183652243e-06 -2.8042429728848505e-04  1.7768152577695274e-40 4.8597854520626433e-19 4.9136709006965224e-19 4.8597854520626433e-19 1.5015579628688543e-04 -1.1553550184788685e-05 4.9136709006965224e-19 -1.1553550184788685e-05 -2.7033429120802943e-04  -3.7910022289682320e-41 4.8594574065866012e-19 4.9281495453110935e-19 4.8594574065866012e-19 1.6162313281190010e-04 -3.2840751243657442e-06 4.9281495453110935e-19 -3.2840751243657442e-06 -2.9193603920688098e-04  2.3995553797272555e-40 4.8616438867865389e-19 4.9181949180654452e-19 4.8616438867865389e-19 1.5666263106769597e-04 -1.1816183921989680e-05 4.9181949180654452e-19 -1.1816183921989680e-05 -2.8216828027021205e-04  -1.5930878750402437e-41 4.8610555058784484e-19 4.9333966805992159e-19 4.8610555058784484e-19 1.6865148732794291e-04 -2.9559251337541079e-06 4.9333966805992159e-19 -2.9559251337541079e-06 -3.0488161260285284e-04  3.9716665182496592e-41 4.8629806239101408e-19 4.9222083999501492e-19 4.8629806239101408e-19 1.6312316101051226e-04 -1.1998084938311644e-05 4.9222083999501492e-19 -1.1998084938311644e-05 -2.9381460692674485e-04  5.3114082228559261e-42 4.8622247033789604e-19 4.9376038724500935e-19 4.8622247033789604e-19 1.7592834434332401e-04 -2.9064456118436963e-06 4.9376038724500935e-19 -2.9064456118436963e-06 -3.1753227466733806e-04  -1.4852861634200811e-42 4.8641387734279790e-19 4.9265373514037093e-19 4.8641387734279790e-19 1.6984388549882876e-04 -1.1973529764999464e-05 4.9265373514037093e-19 -1.1973529764999464e-05 -3.0619823003317901e-04  -1.7870067683119310e-42 4.8633588562940571e-19 4.9415089535700569e-19 4.8633588562940571e-19 1.8321586498243830e-04 -3.1717927379503478e-06 4.9415089535700569e-19 -3.1717927379503478e-06 -3.3034215004443138e-04  -1.0245748193845728e-41 4.8651056709718324e-19 4.9311631862952678e-19 4.8651056709718324e-19 1.7708805046783957e-04 -1.1602861559717685e-05 4.9311631862952678e-19 -1.1602861559717685e-05 -3.1929241415284135e-04  -5.4694854106615207e-42 4.8641344693124018e-19 4.9457535035456777e-19 4.8641344693124018e-19 1.9011046234077396e-04 -2.9229045879359928e-06 4.9457535035456777e-19 -2.9229045879359928e-06 -3.4298805237372153e-04  1.6766341651521356e-41 4.8657624096199665e-19 4.9350479390179081e-19 4.8657624096199665e-19 1.8415312026524608e-04 -1.1460576331342564e-05 4.9350479390179081e-19 -1.1460576331342564e-05 -3.3188798667768926e-04  1.3566632105040726e-42 4.8646114114675676e-19 4.9493040851470323e-19 4.8646114114675676e-19 1.9726079663349121e-04 -3.1719487734128463e-06 4.9493040851470323e-19 -3.1719487734128463e-06 -3.5617345163130440e-04  2.5158010336682