<?xml version="1.0"?>
<VTKFile type="UnstructuredGrid"  version="0.1"  >
<UnstructuredGrid>
<Piece  NumberOfPoints="10016" NumberOfCells="19520">
<Points>
<DataArray  type="Float64"  NumberOfComponents="3"  format="ascii">4.965882134545785e-23 9.999999999999972e-07 2.131013858730117e-10  4.967082817620118e-23 9.999999999999972e-07 1.049534689498666e-10  4.965098371686593e-23 9.998969993079911e-07 1.806957762789407e-10  4.964683486453523e-23 9.999999999999972e-07 3.210660079061538e-10  4.963928094281055e-23 9.998928151283132e-07 2.819208143511568e-10  4.963518268876098e-23 9.999999999999972e-07 4.260194768560998e-10  4.96274502693978e-23 9.998912733244546e-07 3.869402432389603e-10  4.96235103204718e-23 9.999999999999972e-07 5.31154823811502e-10  4.961646649818389e-23 9.998950814042031e-07 4.896813388795724e-10  4.961134681207764e-23 9.999999999999972e-07 6.407139675543703e-10  4.960551587706572e-23 9.998984968509009e-07 5.917312119519161e-10  4.959804858519994e-23 9.999999999999972e-07 7.604937467765757e-10  4.959397099627827e-23 9.999008892025507e-07 6.981106052264079e-10  4.958631038097335e-23 9.999999999999972e-07 8.662220911382774e-10  4.958168164519997e-23 9.998997843553723e-07 8.076983919218066e-10  4.957439975359272e-23 9.999999999999972e-07 9.73503485204662e-10  4.956944998760152e-23 9.999002325489919e-07 9.183195627464037e-10  4.956265137445577e-23 9.999999999999972e-07 1.079323477011368e-09  4.955701160829944e-23 9.999001231667993e-07 1.030245141333686e-09  4.955037124746373e-23 9.999999999999972e-07 1.189933027702161e-09  4.954504260456674e-23 9.998982844091941e-07 1.136213585229598e-09  4.953795753895248e-23 9.999999999999972e-07 1.301745773753337e-09  4.95326570268601e-23 9.998976157823142e-07 1.24710432463861e-09  4.952580296646326e-23 9.999999999999972e-07 1.411224430019871e-09  4.952079240654446e-23 9.998976103117896e-07 1.353965853378831e-09  4.951351198014521e-23 9.999999999999972e-07 1.521931792823871e-09  4.950848465901949e-23 9.998983522683755e-07 1.465566144299132e-09  4.950168439780321e-23 9.999999999999972e-07 1.628465183680133e-09  4.949596083982465e-23 9.998951804729e-07 1.575198883741935e-09  4.948986314853799e-23 9.999999999999972e-07 1.734941531251957e-09  4.948419816326444e-23 9.998943331654061e-07 1.680300347794794e-09  4.947802539128562e-23 9.999999999999972e-07 1.841566569553224e-09  4.947204082171488e-23 9.998946655509252e-07 1.790136331058826e-09  4.946621431693076e-23 9.999999999999972e-07 1.94795126968005e-09  4.946020709617708e-23 9.99892108100797e-07 1.894167604775536e-09  4.945456214115651e-23 9.999999999999972e-07 2.052904738629989e-09  4.944888902898389e-23 9.9989413409941e-07 1.998137689776096e-09  4.944221288381585e-23 9.999999999999972e-07 2.164136960145399e-09  4.943686726214237e-23 9.998955439939779e-07 2.107830033679632e-09  4.943011658234924e-23 9.999999999999972e-07 2.273090757700524e-09  4.942418563548505e-23 9.99894345271597e-07 2.220857249475358e-09  4.941823437199785e-23 9.999999999999972e-07 2.380116193922254e-09  4.941259591656728e-23 9.998933798797915e-07 2.324282765268723e-09  4.940646775074202e-23 9.999999999999972e-07 2.48610049612861e-09  4.940047976189092e-23 9.998932541666663e-07 2.433289671514713e-09  4.939334365366697e-23 9.999999999999972e-07 2.604311853522124e-09  4.938867733384375e-23 9.998981132890019e-07 2.544455614960977e-09  4.938133030301396e-23 9.999999999999972e-07 2.712518496570946e-09  4.937643184836779e-23 9.998987075647537e-07 2.655347418365747e-09  4.93696781272397e-23 9.999999999999972e-07 2.817471965520892e-09  4.936367840386018e-23 9.998961942793014e-07 2.767706948777752e-09  4.935697264094385e-23 9.999999999999972e-07 2.931912812216023e-09  4.935191827886016e-23 9.99893157186426e-07 2.870595645038234e-09  4.934490241972922e-23 9.999999999999972e-07 3.040631699744974e-09  4.933898856026648e-23 9.998933005028144e-07 2.987199513107585e-09  4.933323591259946e-23 9.999999999999972e-07 3.145714254069566e-09  4.932743645501888e-23 9.998952588225388e-07 3.093209946608827e-09  4.932044252956645e-23 9.999999999999972e-07 3.260946804190154e-09  4.9315403508462e-23 9.998982685853218e-07 3.204602856651364e-09  4.930877040695903e-23 9.999999999999972e-07 3.366079938240913e-09  4.930288707006424e-23 9.998981531409161e-07 3.317225466853973e-09  4.929668578862329e-23 9.999999999999972e-07 3.474928503508399e-09  4.929127171549851e-23 9.99897799432636e-07 3.421493571561815e-09  4.928393544307666e-23 9.999999999999972e-07 3.589773406413738e-09  4.927841396730108e-23 9.99894288617495e-07 3.533795056402489e-09  4.927173564470792e-23 9.999999999999972e-07 3.699659421188589e-09  4.926617894837817e-23 9.998938547822628e-07 3.643564474494327e-09  4.925921027606022e-23 9.999999999999972e-07 3.812477912337564e-09  4.925329327689987e-23 9.998919789341237e-07 3.757752436891448e-09  4.924688626668909e-23 9.999999999999972e-07 3.923482720360642e-09  4.924086338452027e-23 9.998939375081047e-07 3.871669528250443e-09  4.923407282833215e-23 9.999999999999972e-07 4.0388959127799e-09  4.922834416742477e-23 9.998971905087777e-07 3.987685611815999e-09  4.922225550927649e-23 9.999999999999972e-07 4.145336860171053e-09  4.921612427779543e-23 9.998961547760789e-07 4.096716859879607e-09  4.920979863216278e-23 9.999999999999972e-07 4.257538434426062e-09  4.920413545292229e-23 9.998948120005688e-07 4.203359818832004e-09  4.919634338725736e-23 9.999999999999972e-07 4.378732506310539e-09  4.91917602287651e-23 9.998984076434729e-07 4.318421571542116e-09  4.91841453417381e-23 9.999999999999972e-07 4.488602732820964e-09  4.917935448999469e-23 9.998964790201501e-07 4.42823390922657e-09  4.917249316596384e-23 9.999999999999972e-07 4.59355620177091e-09  4.916647063218494e-23 9.998933076729775e-07 4.541110036516295e-09  4.916057557547633e-23 9.999999999999972e-07 4.700900313928368e-09  4.915498820682143e-23 9.998920898148982e-07 4.64331667161374e-09  4.914884433435662e-23 9.999999999999972e-07 4.806565940198996e-09  4.914277769993321e-23 9.99888689551642e-07 4.749898876901129e-09  4.913691656895875e-23 9.999999999999972e-07 4.914001699801453e-09  4.913086662358446e-23 9.998933258127582e-07 4.861820576028981e-09  4.912417652637589e-23 9.999999999999972e-07 5.02875380185916e-09  4.911855400084297e-23 9.998965027853393e-07 4.975899794991126e-09  4.911208160507638e-23 9.999999999999972e-07 5.137695167974278e-09  4.910648032202423e-23 9.998974164922569e-07 5.085563532766849e-09  4.910040546388341e-23 9.999999999999972e-07 5.242864498225818e-09  4.909438158163567e-23 9.998985612193588e-07 5.195684025279884e-09  4.908692019192959e-23 9.999999999999972e-07 5.364329029718207e-09  4.908248157270506e-23 9.998974357663855e-07 5.301744323877852e-09  4.907515617966779e-23 9.999999999999972e-07 5.470289832195496e-09  4.907004184132386e-23 9.998960836027688e-07 5.412439299487027e-09  4.906247463312233e-23 9.999999999999972e-07 5.584515048788741e-09  4.905722680501922e-23 9.998968876945172e-07 5.528670976688059e-09  4.905075664085686e-23 9.999999999999972e-07 5.690061339989314e-09  4.904484851716334e-23 9.998950512880538e-07 5.638328275375082e-09  4.90388258015151e-23 9.999999999999972e-07 5.797524787216834e-09  4.903321302856425e-23 9.998936960698588e-07 5.741776221418337e-09  4.902709763433928e-23 9.999999999999972e-07 5.903162725862398e-09  4.902137674591305e-23 9.998954181391909e-07 5.850110047025269e-09  4.901486932734723e-23 9.999999999999972e-07 6.013305523487872e-09  4.900996903583551e-23 9.998983315609181e-07 5.9557749864611e-09  4.900238358687486e-23 9.999999999999972e-07 6.125767075765509e-09  4.899731722266155e-23 9.998986313778074e-07 6.070032205542058e-09  4.899073141110061e-23 9.999999999999972e-07 6.230720544715455e-09  4.898514012365184e-23 9.998953274323083e-07 6.176409817168223e-09  4.897907923532636e-23 9.999999999999972e-07 6.335674013665394e-09  4.897318738928258e-23 9.998930797666336e-07 6.28182281159635e-09  4.89673066150515e-23 9.999999999999972e-07 6.441712350231434e-09  4.896150497515263e-23 9.998961182925383e-07 6.390087169346064e-09  4.895543040371914e-23 9.999999999999972e-07 6.548683752093487e-09  4.89501441466522e-23 9.998982473796315e-07 6.494545502441531e-09  4.894364760853392e-23 9.999999999999972e-07 6.654813736104525e-09  4.893841583205424e-23 9.998970052058862e-07 6.598942595202283e-09  4.893178157211191e-23 9.999999999999972e-07 6.761693490521573e-09  4.892653626952659e-23 9.99896354656094e-07 6.705293632155707e-09  4.891998860201634e-23 9.999999999999972e-07 6.86791512197761e-09  4.891445763983496e-23 9.998958243290268e-07 6.813557929445341e-09  4.890813274050469e-23 9.999999999999972e-07 6.974703228949653e-09  4.890231037543154e-23 9.998944952076616e-07 6.921641638961701e-09  4.889632959549876e-23 9.999999999999972e-07 7.081016507850701e-09  4.889053860927254e-23 9.99896818590432e-07 7.029995665106389e-09  4.888432260744964e-23 9.999999999999972e-07 7.18916584165838e-09  4.887928672857366e-23 9.998988029964962e-07 7.133328002616035e-09  4.887248725306449e-23 9.999999999999972e-07 7.295769236855886e-09  4.886690814235846e-23 9.998970339664384e-07 7.243055365090584e-09  4.886022396497455e-23 9.999999999999972e-07 7.406227116200258e-09  4.885534946644165e-23 9.998975042439787e-07 7.347636939734546e-09  4.884804169425722e-23 9.999999999999972e-07 7.515955255926421e-09  4.884296510625107e-23 9.998937532003507e-07 7.455434295985567e-09  4.883618360663033e-23 9.999999999999972e-07 7.622763413962017e-09  4.883055270301148e-23 9.998934137946383e-07 7.566895879482343e-09  4.882439286265e-23 9.999999999999972e-07 7.728964994354507e-09  4.881854008772649e-23 9.998959100178791e-07 7.677592122165583e-09  4.881274068687575e-23 9.999999999999972e-07 7.833918463304453e-09  4.880697784963158e-23 9.998973883878604e-07 7.783213874498589e-09  4.880087258164428e-23 9.999999999999972e-07 7.940816851900514e-09  4.87957149314054e-23 9.998999337615025e-07 7.887206596793702e-09  4.878828549749057e-23 9.999999999999972e-07 8.054191226909213e-09  4.87836806690754e-23 9.999009217926022e-
[...]
<PointData  Tensors="f_45"> 
<DataArray  type="Float64"  Name="f_45"  NumberOfComponents="9" format="ascii">0.0000000000000000e+00 4.7464479540586850e-19 4.7456698126120690e-19 4.7464479540586850e-19 -2.3249427053632973e-06 2.2419211912942700e-08 4.7456698126120690e-19 2.2419211912942700e-08 3.7715561487285680e-06  0.0000000000000000e+00 4.7458944310714446e-19 4.7451018861842748e-19 4.7458944310714446e-19 -1.8685895400532906e-06 2.7907592242752634e-07 4.7451018861842748e-19 2.7907592242752634e-07 3.8544633222040348e-06  0.0000000000000000e+00 4.7467394061170823e-19 4.7459960250379323e-19 4.7467394061170823e-19 -1.5432015937305670e-06 -1.3999422464021129e-07 4.7459960250379323e-19 -1.3999422464021129e-07 2.6023694436235404e-06  0.0000000000000000e+00 4.7472611390554537e-19 4.7463832778446588e-19 4.7472611390554537e-19 -2.1734124294936452e-06 6.7151230776087814e-08 4.7463832778446588e-19 6.7151230776087814e-08 3.8891290496271766e-06  0.0000000000000000e+00 4.7469738560050359e-19 4.7461566737693292e-19 4.7469738560050359e-19 -1.8663967427155297e-06 -3.1706608027670442e-07 4.7461566737693292e-19 -3.1706608027670442e-07 2.7043692345089858e-06  0.0000000000000000e+00 4.7480791632890062e-19 4.7470068826736282e-19 4.7480791632890062e-19 -1.9612480586436947e-06 -1.4756326073196378e-08 4.7470068826736282e-19 -1.4756326073196378e-08 3.8633844354406389e-06  0.0000000000000000e+00 4.7481849866692617e-19 4.7472132501788401e-19 4.7481849866692617e-19 -1.4454890900803586e-06 -4.4628043225697855e-07 4.7472132501788401e-19 -4.4628043225697855e-07 2.3034530600253602e-06  0.0000000000000000e+00 4.7495245083918954e-19 4.7484037896615199e-19 4.7495245083918954e-19 -1.6753630221312797e-06 -1.4657114070286860e-07 4.7484037896615199e-19 -1.4657114070286860e-07 3.4011281199605137e-06  0.0000000000000000e+00 4.7496284487843438e-19 4.7485490471953616e-19 4.7496284487843438e-19 -1.0009801308700938e-06 -6.5820142977656192e-07 4.7485490471953616e-19 -6.5820142977656192e-07 1.6290543101873106e-06  0.0000000000000000e+00 4.7511343241045131e-19 4.7501231470934867e-19 4.7511343241045131e-19 -1.3689160945546432e-06 -3.3251947306220886e-07 4.7501231470934867e-19 -3.3251947306220886e-07 2.5254517106687843e-06  0.0000000000000000e+00 4.7512036769019380e-19 4.7500064516302075e-19 4.7512036769019380e-19 -5.9350556197137163e-07 -9.5006271544977055e-07 4.7500064516302075e-19 -9.5006271544977055e-07 8.5010944167255207e-07  0.0000000000000000e+00 4.7530506179515944e-19 4.7523226974281911e-19 4.7530506179515944e-19 -4.4482120914931621e-07 -3.5932608331416575e-07 4.7523226974281911e-19 -3.5932608331416575e-07 1.0374740767280513e-06  0.0000000000000000e+00 4.7530241283189343e-19 4.7518165553645570e-19 4.7530241283189343e-19 -3.0217280908295255e-08 -1.2247420559420725e-06 4.7518165553645570e-19 -1.2247420559420725e-06 -2.4389678892462773e-07  0.0000000000000000e+00 4.7550886332115070e-19 4.7546852690815763e-19 4.7550886332115070e-19 5.5142821255060274e-07 -4.4508084980694184e-07 4.7546852690815763e-19 -4.4508084980694184e-07 -7.1495370426772406e-07  0.0000000000000000e+00 4.7549427029507276e-19 4.7538822184458049e-19 4.7549427029507276e-19 8.6202811843279879e-07 -1.4720098708279856e-06 4.7538822184458049e-19 -1.4720098708279856e-06 -1.8956488088385992e-06  0.0000000000000000e+00 4.7572008274518513e-19 4.7573052226132660e-19 4.7572008274518513e-19 1.7350981359235277e-06 -4.2415780210386914e-07 4.7573052226132660e-19 -4.2415780210386914e-07 -2.7714753448275524e-06  0.0000000000000000e+00 4.7571351044184246e-19 4.7561425819132332e-19 4.7571351044184246e-19 1.9015208344789991e-06 -1.8745705818941315e-06 4.7561425819132332e-19 -1.8745705818941315e-06 -3.8626924020802526e-06  0.0000000000000000e+00 4.7595121093550169e-19 4.7600636559757407e-19 4.7595121093550169e-19 2.9922468638073526e-06 -5.6886938241683886e-07 4.7600636559757407e-19 -5.6886938241683886e-07 -5.1235636892537290e-06  0.0000000000000000e+00 4.7596363342344582e-19 4.7588154163482363e-19 4.7596363342344582e-19 3.2927553012928913e-06 -2.2851442221809636e-06 4.7588154163482363e-19 -2.2851442221809636e-06 -6.3842095513058816e-06  0.0000000000000000e+00 4.7620719578999247e-19 4.7632307799311371e-19 4.7620719578999247e-19 4.6766471610532484e-06 -7.1581963266565424e-07 4.7632307799311371e-19 -7.1581963266565424e-07 -8.1958346135205412e-06  0.0000000000000000e+00 4.7622506486446372e-19 4.7616890018073091e-19 4.7622506486446372e-19 4.7982252086543736e-06 -2.7028617195130323e-06 4.7616890018073091e-19 -2.7028617195130323e-06 -9.1921756495347284e-06  0.0000000000000000e+00 4.7649281353228879e-19 4.7667397646502304e-19 4.7649281353228879e-19 6.5856573022474300e-06 -9.0026658822621985e-07 4.7667397646502304e-19 -9.0026658822621985e-07 -1.1649731752934362e-05  0.0000000000000000e+00 4.7651900634027086e-19 4.7650203674605714e-19 4.7651900634027086e-19 6.7077450911353223e-06 -3.0591255527956515e-06 4.7650203674605714e-19 -3.0591255527956515e-06 -1.2520299159141977e-05  0.0000000000000000e+00 4.7680348938747192e-19 4.7707799112664612e-19 4.7680348938747192e-19 8.9182791621368698e-06 -9.4050424232065615e-07 4.7707799112664612e-19 -9.4050424232065615e-07 -1.5744271376242662e-05  0.0000000000000000e+00 4.7682315293262404e-19 4.7684486950734707e-19 4.7682315293262404e-19 8.7870440037851254e-06 -3.5089416458393946e-06 4.7684486950734707e-19 -3.5089416458393946e-06 -1.6196138325651100e-05  0.0000000000000000e+00 4.7711070280380520e-19 4.7748634351122478e-19 4.7711070280380520e-19 1.1268323600252544e-05 -9.9514401081071301e-07 4.7748634351122478e-19 -9.9514401081071301e-07 -2.0025553028498039e-05  0.0000000000000000e+00 4.7714166930834147e-19 4.7721659796995536e-19 4.7714166930834147e-19 1.1140451227753804e-05 -3.9913772834213746e-06 4.7721659796995536e-19 -3.9913772834213746e-06 -2.0473000564277644e-05  0.0000000000000000e+00 4.7741710262695753e-19 4.7789551733619913e-19 4.7741710262695753e-19 1.3865717919049947e-05 -1.1295878657915185e-06 4.7789551733619913e-19 -1.1295878657915185e-06 -2.4743246875853565e-05  0.0000000000000000e+00 4.7746692992082696e-19 4.7761015982936157e-19 4.7746692992082696e-19 1.3659255593284424e-05 -4.4083910746797800e-06 4.7761015982936157e-19 -4.4083910746797800e-06 -2.5056238396855932e-05  0.0000000000000000e+00 4.7776234664543019e-19 4.7835037921118252e-19 4.7776234664543019e-19 1.6857067028318342e-05 -1.2341312837285053e-06 4.7835037921118252e-19 -1.2341312837285053e-06 -2.9918382566881966e-05  0.0000000000000000e+00 4.7780815092155388e-19 4.7802238895747116e-19 4.7780815092155388e-19 1.6422609165827342e-05 -4.8535783965785764e-06 4.7802238895747116e-19 -4.8535783965785764e-06 -2.9989135313419276e-05  0.0000000000000000e+00 4.7808725924689931e-19 4.7879062262093067e-19 4.7808725924689931e-19 1.9759851761535250e-05 -1.4272840086440196e-06 4.7879062262093067e-19 -1.4272840086440196e-06 -3.5285087898565046e-05  0.0000000000000000e+00 4.7815452302020301e-19 4.7845109440695708e-19 4.7815452302020301e-19 1.9270005813773928e-05 -5.3073992116917625e-06 4.7845109440695708e-19 -5.3073992116917625e-06 -3.5227359387623400e-05  0.0000000000000000e+00 4.7841832239076211e-19 4.7926645691974437e-19 4.7841832239076211e-19 2.3096141632370027e-05 -1.5015541834215226e-06 4.7926645691974437e-19 -1.5015541834215226e-06 -4.1377883394711644e-05  0.0000000000000000e+00 4.7848385356190860e-19 4.7888661264199269e-19 4.7848385356190860e-19 2.2356386707440593e-05 -5.5712443114946287e-06 4.7888661264199269e-19 -5.5712443114946287e-06 -4.0754337899032840e-05  0.0000000000000000e+00 4.7876299218419347e-19 4.7975541766037851e-19 4.7876299218419347e-19 2.6495114349656097e-05 -1.5765068338231714e-06 4.7975541766037851e-19 -1.5765068338231714e-06 -4.7526076041430394e-05  0.0000000000000000e+00 4.7882676113057541e-19 4.7933122314323817e-19 4.7882676113057541e-19 2.5599841319824967e-05 -5.9660477833621044e-06 4.7933122314323817e-19 -5.9660477833621044e-06 -4.6619516614012876e-05  0.0000000000000000e+00 4.7912082308668126e-19 4.8027355608777308e-19 4.7912082308668126e-19 3.0273601616410389e-05 -1.6290587671617124e-06 4.8027355608777308e-19 -1.6290587671617124e-06 -5.4297510810473766e-05  0.0000000000000000e+00 4.7918235004386397e-19 4.7981245132484941e-19 4.7918235004386397e-19 2.9193076566841944e-05 -6.2692644613296432e-06 4.7981245132484941e-19 -6.2692644613296432e-06 -5.3082501067806392e-05  0.0000000000000000e+00 4.7945647301203621e-19 4.8076802248228398e-19 4.7945647301203621e-19 3.4129127471096671e-05 -1.7995109830954935e-06 4.8076802248228398e-19 -1.7995109830954935e-06 -6.1354924259271611e-05  0.0000000000000000e+00 4.7954850949069382e-19 4.8030805087311323e-19 4.7954850949069382e-19 3.3068837694193881e-05 -6.6018394972969863e-06 4.8030805087311323e-19 -6.6018394972969863e-06 -5.9955197838940608e-05  0.0000000000000000e+00 4.7981857727281476e-19 4.8129659420758446e-19 4.7981857727281476e-19 3.8294374982597724e-05 -1.8676676578368512e-06 4.8129659420758446e-19 -1.8676676578368512e-06 -6.8655296367731015e-05  0.0000000000000000e+00 4.7990422448428515e-19 4.8080516688834967e-19 4.7990422448428515e-19 3.6899750707409512e-05 -6.9435045158052641e-06 4.8080516688834967e-19 -6.9435045158052641e-06 -6.7016695239978906e-05  0.0000000000000000e+00 4.8017137349111263e-19 4.8184731680063972e-19 4.8017137349111263e-19 4.2619834296070380e-05 -1.9872185464814708e-06 4.8184731680063972e-19 -1.9872185464814708e-06 -7.6785382042901293e-05  0.0000000000000000e+00 4.8025933737010642e-19 4.8130784286447962e-19 4.8025933737010642e-19 4.1026358461652671e-05 -7.1853474567848165e-06 4.8130784286447962e-19 -7.1853474567848165e-06 -7.4285249187773658e-05  0.0000000000000000e+00 4.8054667520542676e-19 4.8240712999724944e-19 4.8054667520542676e-19 4.7164138977979791e-05 -2.0441468673235030e-06 4.8240712999724944e-19 -2.0441468673235030e-06 -8.4767406743663188e-05  0.0000000000000000e+00 4.8062840379767952e-19 4.8185562473632730e-19 4.8062840379767952e-19 4.5450352445454678e-05 -7.3713548554723069e-06 4.8185562473632730e-19 -7.3713548554723069e-06 -8.2300709208133377e-05  0.0000000000000000e+00 4.8092081243340522e-19 4.8301171147430511e-19 4.8092081243340522e-19 5.1943234861640668e-05 -1.9408603000461818e-06 4.8301171147430511e-19 -1.9408603000461818e-06 -9.3491244018774062e-05  0.0000000000000000e+00 4.8100880374021090e-19 4.8241103316005151e-19 4.8100880374021090e-19 5.0175891165583303e-05 -7.6082873223668381e-06 4.8241103316005151e-19 -7.6082873223668381e-06 -9.0652785385988041e-05  0.0000000000000000e+00 4.8126202003939598e-19 4.8352858519725358e-19 4.8126202003939598e-19 5.6665972424949978e-05 -2.3589864452503356e-06 4.8352858519725358e-19 -2.3589864452503356e-06 -1.0221475331859381e-04  0.0000000000000000e+00 4.8137657154991609e-19 4.8293988155808491e-19 4.8137657154991609e-19 5.4794684230304018e-05 -8.0334196053426400e-06 4.8293988155808491e-19 -8.0334196053426400e-06 -9.9023612922380266e-05  0.0000000000000000e+00 4.8162627978436166e-19 4.8413470340495541e-19 4.8162627978436166e-19 6.1936909427125753e-05 -2.2268070128635090e-06 4.8413470340495541e-19 -2.2268070128635090e-06 -1.1157826618509553e-04  0.0000000000000000e+00 4.8173050151552317e-19 4.8345918719043128e-19 4.8173050151552317e-19 5.9516939142674182e-05 -8.5348332008567723e-06 4.8345918719043128e-19 -8.5348332008567723e-06 -1.0772783819019060e-04  0.0000000000000000e+00 4.8196972938413352e-19 4.8469780597631244e-19 4.8196972938413352e-19 6.7354683764456533e-05 -2.3348224026621932e-06 4.8469780597631244e-19 -2.3348224026621932e-06 -1.2116898745969321e-04  0.0000000000000000e+00 4.8210152954401799e-19 4.8402861447308665e-19 4.8210152954401799e-19 6.4830436852263498e-05 -8.7884900677116613e-06 4.8402861447308665e-19 -8.7884900677116613e-06 -1.1712269285992183e-04  0.0000000000000000e+00 4.8231894952488703e-19 4.8528309286423521e-19 4.8231894952488703e-19 7.2665409207373725e-05 -2.4330629167612901e-06 4.8528309286423521e-19 -2.4330629167612901e-06 -1.3092879440335971e-04  0.0000000000000000e+00 4.8242631265601081e-19 4.8459015737462488e-19 4.8242631265601081e-19 6.9933232825122418e-05 -8.8048032569150733e-06 4.8459015737462488e-19 -8.8048032569150733e-06 -1.2652320040660851e-04  0.0000000000000000e+00 4.8265249236777779e-19 4.8586812999648860e-19 4.8265249236777779e-19 7.8346091874774131e-05 -2.3090840944384752e-06 4.8586812999648860e-19 -2.3090840944384752e-06 -1.4089203777356582e-04  0.0000000000000000e+00 4.8275701800317456e-19 4.8513489237982567e-19 4.8275701800317456e-19 7.5287215034960039e-05 -8.9480364294062747e-06 4.8513489237982567e-19 -8.9480364294062747e-06 -1.3601926451954339e-04  0.0000000000000000e+00 4.8295162031550828e-19 4.8642488791686312e-19 4.8295162031550828e-19 8.3757353262237149e-05 -2.3427900012822194e-06 4.8642488791686312e-19 -2.3427900012822194e-06 -1.5101175995852948e-04  0.0000000000000000e+00 4.8308178314018829e-19 4.8567145162641681e-19 4.8308178314018829e-19 8.0860949673294968e-05 -9.2763164672349595e-06 4.8567145162641681e-19 -9.2763164672349595e-06 -1.4606490272648127e-04  0.0000000000000000e+00 4.8326719590910404e-19 4.8697092147898336e-19 4.8326719590910404e-19 8.9408639006953141e-05 -2.5331783500502902e-06 4.8697092147898336e-19 -2.5331783500502902e-06 -1.6119538409405470e-04  0.0000000000000000e+00 4.8340522905721294e-19 4.8620479351628074e-19 4.8340522905721294e-19 8.6384038584994105e-05 -9.6198690395800617e-06 4.8620479351628074e-19 -9.6198690395800617e-06 -1.5605624648230658e-04  0.0000000000000000e+00 4.8359724356803211e-19 4.8755965749662529e-19 4.8359724356803211e-19 9.5609762659194477e-05 -2.7543859827285013e-06 4.8755965749662529e-19 -2.7543859827285013e-06 -1.7249903819533389e-04  0.0000000000000000e+00 4.8373291142518758e-19 4.8675633708828908e-19 4.8373291142518758e-19 9.2307307558720905e-05 -9.8607357474946372e-06 4.8675633708828908e-19 -9.8607357474946372e-06 -1.6649397381371118e-04  0.0000000000000000e+00 4.8388770828497524e-19 4.8813583300464597e-19 4.8388770828497524e-19 1.0178677263952895e-04 -2.6527292432436125e-06 4.8813583300464597e-19 -2.6527292432436125e-06 -1.8361964274880087e-04  0.0000000000000000e+00 4.8405918355196059e-19 4.8729730428015754e-19 4.8405918355196059e-19 9.8265666613680429e-05 -1.0298400822824212e-05 4.8729730428015754e-19 -1.0298400822824212e-05 -1.7719526547812657e-04  0.0000000000000000e+00 4.8419617043853611e-19 4.8871381706008533e-19 4.8419617043853611e-19 1.0836871767976946e-04 -2.7609924990509608e-06 4.8871381706008533e-19 -2.7609924990509608e-06 -1.9527338923952235e-04  0.0000000000000000e+00 4.8434035686664343e-19 4.8784087983835038e-19 4.8434035686664343e-19 1.0439073467774480e-04 -1.0487810284287897e-05 4.8784087983835038e-19 -1.0487810284287897e-05 -1.8842617104843212e-04  0.0000000000000000e+00 4.8447255947779251e-19 4.8929483639802179e-19 4.8447255947779251e-19 1.1495068719599622e-04 -2.6825522527054700e-06 4.8929483639802179e-19 -2.6825522527054700e-06 -2.0718620986824400e-04  0.0000000000000000e+00 4.8461534815820277e-19 4.8838587586015902e-19 4.8461534815820277e-19 1.1069214945678476e-04 -1.0599674884127115e-05 4.8838587586015902e-19 -1.0599674884127115e-05 -1.9981528783901724e-04  0.0000000000000000e+00 4.8473876127424749e-19 4.8981348862808861e-19 4.8473876127424749e-19 1.2151534092069240e-04 -2.9129103727698090e-06 4.8981348862808861e-19 -2.9129103727698090e-06 -2.1875932254351822e-04  0.0000000000000000e+00 4.8489222340017231e-19 4.8895763137645306e-19 4.8489222340017231e-19 1.1724097025840941e-04 -1.0608092104231203e-05 4.8895763137645306e-19 -1.0608092104231203e-05 -2.1169303385432583e-04  0.0000000000000000e+00 4.8497528215509116e-19 4.9034434959223759e-19 4.8497528215509116e-19 1.2789701378400432e-04 -2.9572050029527901e-06 4.9034434959223759e-19 -2.9572050029527901e-06 -2.3053194422727538e-04  0.0000000000000000e+00 4.8514345356898369e-19 4.8947859874002274e-19 4.8514345356898369e-19 1.2370070660366176e-04 -1.0693521385350405e-05 4.8947859874002274e-19 -1.0693521385350405e-05 -2.2318278208468737e-04  0.0000000000000000e+00 4.8521490565707186e-19 4.9091856053637798e-19 4.8521490565707186e-19 1.3480056759831410e-04 -2.8856833161139198e-06 4.9091856053637798e-19 -2.8856833161139198e-06 -2.4331984618108872e-04  0.0000000000000000e+00 4.8535493222541626e-19 4.8994286738702143e-19 4.8535493222541626e-19 1.2989504404675313e-04 -1.0906277611902952e-05 4.8994286738702143e-19 -1.0906277611902952e-05 -2.3435649161010236e-04  0.0000000000000000e+00 4.8543596706140688e-19 4.9141666813135577e-19 4.8543596706140688e-19 1.4177320157768116e-04 -3.0988793044003586e-06 4.9141666813135577e-19 -3.0988793044003586e-06 -2.5570969262140111e-04  0.0000000000000000e+00 4.8558530707012901e-19 4.9044532200109480e-19 4.8558530707012901e-19 1.3669770148363441e-04 -1.1091715202942433e-05 4.9044532200109480e-19 -1.1091715202942433e-05 -2.4643137761760491e-04  0.0000000000000000e+00 4.8560717350996438e-19 4.9194154208865644e-19 4.8560717350996438e-19 1.4824503514999752e-04 -2.8586504011575547e-06 4.9194154208865644e-19 -2.8586504011575547e-06 -2.6807217583322521e-04  0.0000000000000000e+00 4.8578762700542475e-19 4.9093247993554999e-19 4.8578762700542475e-19 1.4339733654863932e-04 -1.1255118856400330e-05 4.9093247993554999e-19 -1.1255118856400330e-05 -2.5858900521432175e-04  0.0000000000000000e+00 4.8577485269056176e-19 4.9238241825753451e-19 4.8577485269056176e-19 1.5512176426026950e-04 -3.1356234918137707e-06 4.9238241825753451e-19 -3.1356234918137707e-06 -2.8042433054864367e-04  0.0000000000000000e+00 4.8597856638986101e-19 4.9136711144043939e-19 4.8597856638986101e-19 1.5015580325994675e-04 -1.1553551364246204e-05 4.9136711144043939e-19 -1.1553551364246204e-05 -2.7033430391213141e-04  0.0000000000000000e+00 4.8594591121409833e-19 4.9281512707055507e-19 4.8594591121409833e-19 1.6162318697083831e-04 -3.2840790413232969e-06 4.9281512707055507e-19 -3.2840790413232969e-06 -2.9193613694043888e-04  0.0000000000000000e+00 4.8616439452113860e-19 4.9181949748763871e-19 4.8616439452113860e-19 1.5666263273469375e-04 -1.1816186117740631e-05 4.9181949748763871e-19 -1.1816186117740631e-05 -2.8216828342135741e-04  0.0000000000000000e+00 4.8610557200097559e-19 4.9333968997733639e-19 4.8610557200097559e-19 1.6865149487948710e-04 -2.9559236349726885e-06 4.9333968997733639e-19 -2.9559236349726885e-06 -3.0488162624120457e-04  0.0000000000000000e+00 4.8629801535339813e-19 4.9222079209404146e-19 4.8629801535339813e-19 1.6312314500788747e-04 -1.1998086336978393e-05 4.9222079209404146e-19 -1.1998086336978393e-05 -2.9381457816859041e-04  0.0000000000000000e+00 4.8622265468626124e-19 4.9376057395021639e-19 4.8622265468626124e-19 1.7592840644919318e-04 -2.9064493411671530e-06 4.9376057395021639e-19 -2.9064493411671530e-06 -3.1753238668893709e-04  0.0000000000000000e+00 4.8641381291567121e-19 4.9265366999261287e-19 4.8641381291567121e-19 1.6984386417800415e-04 -1.1973527677962923e-05 4.9265366999261287e-19 -1.1973527677962923e-05 -3.0619819155654242e-04  0.0000000000000000e+00 4.8633601497666971e-19 4.9415102670535857e-19 4.8633601497666971e-19 1.8321591206782518e-04 -3.1717936086101102e-06 4.9415102670535857e-19 -3.1717936086101102e-06 -3.3034223491955545e-04  0.0000000000000000e+00 4.8651051135377076e-19 4.9311626175991935e-19 4.8651051135377076e-19 1.7708802861649849e-04 -1.1602862951798363e-05 4.9311626175991935e-19 -1.1602862951798363e-05 -3.1929237479793779e-04  0.0000000000000000e+00 4.8641341149504874e-19 4.9457531380388150e-19 4.8641341149504874e-19 1.9011044737978264e-04 -2.9229086296977166e-06 4.9457531380388150e-19 -2.9229086296977166e-06 -3.4298802541930811e-04  0.0000000000000000e+00 4.8657631485342022e-19 4.9350486874149906e-19 4.8657631485342022e-19 1.8415314691454365e-04 -1.1460578487155463e-05 4.9350486874149906e-19 -1.1460578487155463e-05 -3.3188803472138307e-04  0.0000000000000000e+00 4.8646115054076866e-19 4.9493041785028098e-19 4.8646115054076866e-19 1.9726079976566214e-04 -3.1719505002778593e-06 4.9493041785028098e-19 -3.1719505002778593e-06 -3.5617345716454043e-04  0.0000000000000000e+00 4.8664422944483363e-19 4.938629394916659