<?xml version="1.0"?>
<VTKFile type="UnstructuredGrid"  version="0.1"  >
<UnstructuredGrid>
<Piece  NumberOfPoints="10032" NumberOfCells="19650">
<Points>
<DataArray  type="Float64"  NumberOfComponents="3"  format="ascii">3.901518079129386e-23 9.66732228998744e-07 6.281472165181667e-08  3.898834988629692e-23 9.664900834982315e-07 6.281424745879658e-08  3.89856056490728e-23 9.666501802062126e-07 6.299906205825768e-08  3.895422733336908e-23 9.664831813820316e-07 6.311469397589823e-08  3.896998584585018e-23 9.667226083363249e-07 6.321218086831587e-08  3.901780394277841e-23 9.664465600753998e-07 6.250542548037567e-08  3.906416780321384e-23 9.666390002717108e-07 6.228025714752587e-08  3.904101509164988e-23 9.664099139827283e-07 6.225971194488742e-08  3.92387934833227e-23 9.66604319375141e-07 6.067268795522091e-08  3.92287328780236e-23 9.667430161045423e-07 6.090200256117438e-08  3.925795880545247e-23 9.66820992819999e-07 6.071673552487465e-08  3.927915522128981e-23 9.668131181868059e-07 6.051794055074835e-08  3.875512840970735e-23 9.669435874173484e-07 6.536842368804066e-08  3.878224835139818e-23 9.669007776840083e-07 6.508133923611435e-08  3.874540683655308e-23 9.667184457994995e-07 6.523084621666176e-08  3.914062489003087e-23 9.664357487955205e-07 6.138834145593745e-08  3.913222935909718e-23 9.662710078600518e-07 6.129922074043785e-08  3.910354438129699e-23 9.662820479933335e-07 6.156863218438371e-08  3.936706165080823e-23 9.663336355183809e-07 5.92466671558781e-08  3.934055607125296e-23 9.66365068393723e-07 5.951684106763692e-08  3.937913788930944e-23 9.665374556522188e-07 5.934171420328784e-08  3.872229371466776e-23 9.667148375311332e-07 6.543542244251575e-08  3.913245278778743e-23 9.665308246726845e-07 6.155702508633829e-08  3.907649167930312e-23 9.664774226228155e-07 6.200767589110366e-08  3.916047518518924e-23 9.66261171098737e-07 6.103496819539713e-08  3.916647287857238e-23 9.664603235296323e-07 6.11800982069217e-08  3.947418929169226e-23 9.667524125589066e-07 5.870052418927108e-08  3.948150582280774e-23 9.666600402208747e-07 5.854225039762848e-08  3.944271388158096e-23 9.665215520448576e-07 5.875316896571925e-08  3.919827870200261e-23 9.665114705936205e-07 6.094476388181264e-08  3.909987176563304e-23 9.664291804743568e-07 6.174884464647836e-08  3.94121866323674e-23 9.665721220546204e-07 5.907870399184761e-08  3.906591999316795e-23 9.662288661530106e-07 6.185434070477686e-08  3.877837904059181e-23 9.664793546969011e-07 6.469476790241862e-08  3.873580833988881e-23 9.66334515012601e-07 6.493337100176443e-08  3.876369401549407e-23 9.665569753292526e-07 6.490465948188638e-08  3.971050891153242e-23 9.665308642915775e-07 5.635039801823692e-08  3.966845908176749e-23 9.663928554240628e-07 5.659114034604287e-08  3.96966736120832e-23 9.666204766430301e-07 5.656462766857771e-08  3.926966996837183e-23 9.66635624993849e-07 6.042588292080534e-08  3.962564626994605e-23 9.663382254682564e-07 5.692213391696791e-08  3.966356257302747e-23 9.665625810804551e-07 5.680496983230915e-08  3.932648701352314e-23 9.666021956357616e-07 5.988069111597438e-08  3.932122865038443e-23 9.664218380245182e-07 5.974769662927516e-08  3.928735172441469e-23 9.663563972974152e-07 5.998739212451976e-08  3.946902747681434e-23 9.664704129168287e-07 5.84650180423146e-08  3.950938633147792e-23 9.66688344261553e-07 5.831942914139094e-08  3.936574463928754e-23 9.666523598240587e-07 5.957725404674358e-08  3.903272061678899e-23 9.666553915200398e-07 6.257989946998437e-08  3.876638111919721e-23 9.667073715258211e-07 6.503085239998247e-08  3.873748190205519e-23 9.665315152976352e-07 6.511529717890083e-08  3.88295179594522e-23 9.662756981569562e-07 6.403049293062615e-08  3.882963485824601e-23 9.664280703967085e-07 6.418181223964998e-08  3.886284604863409e-23 9.665268123995887e-07 6.398141443321764e-08  3.910762153507523e-23 9.667432831772192e-07 6.199314363179658e-08  3.91661643510128e-23 9.66623740840102e-07 6.134629448659614e-08  3.903395406084176e-23 9.662148922450466e-07 6.212829031863839e-08  3.889173574196124e-23 9.665053456115569e-07 6.369973242097986e-08  3.892394520540516e-23 9.666999643096529e-07 6.36042340639481e-08  3.892791460084832e-23 9.665435254408525e-07 6.341204205947028e-08  3.890159998550311e-23 9.667348853777545e-07 6.384042298009849e-08  3.888848248180718e-23 9.663071093967399e-07 6.353079896859784e-08  3.879886554682457e-23 9.663987449570562e-07 6.442963211890184e-08  3.884267227520168e-23 9.666272203345298e-07 6.426353156518439e-08  3.920378819005498e-23 9.663572217029504e-07 6.074088993446333e-08  3.924061758077818e-23 9.664275009594088e-07 6.047943953024707e-08  3.880295806516201e-23 9.662472049813807e-07 6.424123001510734e-08  3.962524594094956e-23 9.66869134495342e-07 5.745664878709239e-08  3.962752105998887e-23 9.66680989673551e-07 5.724801151478609e-08  3.960090975978855e-23 9.666842021422607e-07 5.749091726682779e-08  3.863087747666802e-23 9.669832439757224e-07 6.65272331578874e-08  3.862997081478696e-23 9.66792603740578e-07 6.634475940696242e-08  3.858595937382213e-23 9.66749462763624e-07 6.669803824826686e-08  3.919682162214074e-23 9.666816832216195e-07 6.11281007184577e-08  3.945036984653331e-23 9.667227925228219e-07 5.888545064187032e-08  3.885735372588969e-23 9.662970127027207e-07 6.380108518167969e-08  3.929209155147699e-23 9.661679197100395e-07 5.975622197036092e-08  3.907063530272485e-23 9.668542733970052e-07 6.243727621604466e-08  3.928653399061136e-23 9.665505893231405e-07 6.018894964154904e-08  3.941027904970992e-23 9.667725194091306e-07 5.929628332344865e-08  3.981346784913608e-23 9.665909555903977e-07 5.548311765100456e-08  3.985830087258865e-23 9.667412652516985e-07 5.522960733687556e-08  3.981951964592905e-23 9.664449808203386e-07 5.528263314138195e-08  3.879745710331297e-23 9.66773049849891e-07 6.481662314308459e-08  3.904641354314281e-23 9.668477560719951e-07 6.264892910589033e-08  3.922587934767629e-23 9.669021407395008e-07 6.108682951255065e-08  3.92581712964138e-23 9.669650816398187e-07 6.085891039626594e-08  3.928752082616382e-23 9.669979618946889e-07 6.062743358864469e-08  3.866487766878145e-23 9.666630927441427e-07 6.590083542124267e-08  3.869495749256689e-23 9.668133283430412e-07 6.578013605375812e-08  3.868709894984608e-23 9.666115733173999e-07 6.564916448825505e-08  3.909624668692981e-23 9.660782384367327e-07 6.143055441504827e-08  3.912339070267397e-23 9.66104494315115e-07 6.12123187350492e-08  3.910223091242643e-23 9.668972316179277e-07 6.219564648480996e-08  3.870551014890758e-23 9.66501501713674e-07 6.537325954606356e-08  3.948278710737602e-23 9.669257391430089e-07 5.879640853435417e-08  3.950974500018909e-23 9.668886690876813e-07 5.851652336697134e-08  3.871875334774141e-23 9.668357501885647e-07 6.558822389028771e-08  3.930492689876756e-23 9.668034759547768e-07 6.02761676845483e-08  3.997192400078078e-23 9.665911933307832e-07 5.405610926038679e-08  3.994385396030383e-23 9.66574782674368e-07 5.429253105163609e-08  3.998637589247027e-23 9.667815659250844e-07 5.411631078663287e-08  3.912189067254917e-23 9.666388365611337e-07 6.17601720512901e-08  3.957111068873735e-23 9.665599299406498e-07 5.763505123578125e-08  3.958704774326713e-23 9.664966586518331e-07 5.742823172128107e-08  3.968822998851125e-23 9.663183399827387e-07 5.633854440823093e-08  3.978180576963444e-23 9.663315925433807e-07 5.550894126287829e-08  3.881957625183489e-23 9.666717904363219e-07 6.451613215143329e-08  3.920791796816976e-23 9.661914700443972e-07 6.053794054155229e-08  3.972694626851096e-23 9.664534435256335e-07 5.612492270276587e-08  3.906459374940049e-23 9.660442296052332e-07 6.168164989887324e-08  3.965046306240209e-23 9.65890011789029e-07 5.62503904432255e-08  3.969634637012826e-23 9.660580464665464e-07 5.600514502558667e-08  3.966332419931826e-23 9.658248322580738e-07 5.606936808942381e-08  3.891663305520795e-23 9.662917982114517e-07 6.326192995955378e-08  3.988430758325711e-23 9.664647984187129e-07 5.47188928789388e-08  3.991899430973904e-23 9.6669481309856e-07 5.463647730186847e-08  3.99008439690801e-23 9.664147053455647e-07 5.451985328372964e-08  3.933361023123939e-23 9.668129963332746e-07 6.002733157218228e-08  3.900669118847487e-23 9.668645925475878e-07 6.302355274484473e-08  3.962992934119612e-23 9.661875590300828e-07 5.673288900262276e-08  3.924733162641006e-23 9.662819574600376e-07 6.027342128406415e-08  3.969245488039203e-23 9.667669435092335e-07 5.674909349172577e-08  3.950098524277548e-23 9.664864031936661e-07 5.819315835340369e-08  3.916893577756611e-23 9.661026095063213e-07 6.080020036162992e-08  3.944875203138782e-23 9.66870838179281e-07 5.904806828170214e-08  3.973461437664064e-23 9.667548228772653e-07 5.635723387656681e-08  3.897717582852082e-23 9.662556725469098e-07 6.26804834723482e-08  3.895755212064213e-23 9.66828835146836e-07 6.343040071925471e-08  3.973599692080847e-23 9.663347969980335e-07 5.59247551465369e-08  3.970338370118747e-23 9.66248361888629e-07 5.613207380459733e-08  3.894831458004951e-23 9.662813676976877e-07 6.296613763884784e-08  3.958387118355909e-23 9.667686798141509e-07 5.772886478983378e-08  3.953812648345831e-23 9.664932364898851e-07 5.786545309422417e-08  3.963725167582598e-23 9.665450052998474e-07 5.702438154536632e-08  3.988096892745312e-23 9.665722093545793e-07 5.485637575287468e-08  3.913948038630977e-23 9.669853846129062e-07 6.194828604638696e-08  3.966948768588062e-23 9.660940607361834e-07 5.628308081596234e-08  3.879385116464716e-23 9.66064162634585e-07 6.414021533584194e-08  3.88217185562763e-23 9.660791732008826e-07 6.390421875302597e-08  3.966372697470812e-23 9.667421408173389e-07 5.698304877049756e-08  3.965027575971678e-23 9.661540247187416e-07 5.651609044554563e-08  3.985292112713542e-23 9.665322290963814e-07 5.506902762079554e-08  3.982181992298862e-23 9.662907722663317e-07 5.510770553355842e-08  3.93988081602567e-23 9.66312204783533e-07 5.893928928478527e-08  3.942619320776914e-23 9.662652802574851e-07 5.864570217919234e-08  3.900386017942265e-23 9.662243804815322e-07 6
[...]
<PointData  Tensors="f_58"> 
<DataArray  type="Float64"  Name="f_58"  NumberOfComponents="9" format="ascii">-1.1180976374439123e-02 9.7423811122604280e-19 -4.6322690766386839e-19 9.7423811122604280e-19 6.2986080295080122e-03 -3.2918922185026903e-04 -4.6322690766386839e-19 -3.2918922185026903e-04 -3.4238715283631620e-03  -1.1180995393600904e-02 9.7326267551115839e-19 -4.6284882766881232e-19 9.7326267551115839e-19 6.2846037732201820e-03 -3.1600421893392182e-04 -4.6284882766881232e-19 -3.1600421893392182e-04 -3.4079180759574853e-03  -1.1181011560661768e-02 9.7394704759523848e-19 -4.6437724858089243e-19 9.7394704759523848e-19 6.2916804418594111e-03 -3.3255104346018282e-04 -4.6437724858089243e-19 -3.3255104346018282e-04 -3.4082585929162239e-03  -1.1180987635084608e-02 9.7308543735284656e-19 -4.6466199886350641e-19 9.7308543735284656e-19 6.2788586270340280e-03 -3.2633560126548068e-04 -4.6466199886350641e-19 -3.2633560126548068e-04 -3.3933498277472032e-03  -1.1180933248702511e-02 9.7398698671371321e-19 -4.6576901837738875e-19 9.7398698671371321e-19 6.2936671338634977e-03 -3.4166492247139770e-04 -4.6576901837738875e-19 -3.4166492247139770e-04 -3.4025250440801284e-03  -1.1181023745605707e-02 9.7320866351167553e-19 -4.6092793440423000e-19 9.7320866351167553e-19 6.2841011751127267e-03 -3.0400317824533403e-04 -4.6092793440423000e-19 -3.0400317824533403e-04 -3.4190468309275917e-03  -1.1180996588368054e-02 9.7414971550677213e-19 -4.6011613565611596e-19 9.7414971550677213e-19 6.2992630732922874e-03 -3.0820670332162321e-04 -4.6011613565611596e-19 -3.0820670332162321e-04 -3.4402330452821305e-03  -1.1181031157217733e-02 9.7308423041713896e-19 -4.5966992658038569e-19 9.7308423041713896e-19 6.2835526543764579e-03 -2.9579368494517553e-04 -4.5966992658038569e-19 -2.9579368494517553e-04 -3.4269979884330535e-03  -1.1181007158027931e-02 9.7469206560489646e-19 -4.5111783395058981e-19 9.7469206560489646e-19 6.3153581511900189e-03 -2.5483426078528357e-04 -4.5111783395058981e-19 -2.5483426078528357e-04 -3.5019332594579664e-03  -1.1181038971053471e-02 9.7513533293661610e-19 -4.5245882009274430e-19 9.7513533293661610e-19 6.3214878189120274e-03 -2.6790324788824964e-04 -4.5245882009274430e-19 -2.6790324788824964e-04 -3.5021222743171366e-03  -1.1180964656217013e-02 9.7550426164910396e-19 -4.5134631604925304e-19 9.7550426164910396e-19 6.3279521811955113e-03 -2.6419464774293035e-04 -4.5134631604925304e-19 -2.6419464774293035e-04 -3.5144158689732279e-03  -1.1180953200876377e-02 9.7552586638301774e-19 -4.5039438363893468e-19 9.7552586638301774e-19 6.3285092579430952e-03 -2.5903636030520947e-04 -4.5039438363893468e-19 -2.5903636030520947e-04 -3.5213927536700651e-03  -1.1181054515132970e-02 9.7378384692564962e-19 -4.8029245883457735e-19 9.7378384692564962e-19 6.2849710336969128e-03 -4.2765068156244408e-04 -4.8029245883457735e-19 -4.2765068156244408e-04 -3.3080713919287877e-03  -1.1180976310455632e-02 9.7380569692642404e-19 -4.7834061739526339e-19 9.7380569692642404e-19 6.2854593624529368e-03 -4.1607238937854262e-04 -4.7834061739526339e-19 -4.1607238937854262e-04 -3.3200143618554606e-03  -1.1180992145799130e-02 9.7269825119723829e-19 -4.7853305055493849e-19 9.7269825119723829e-19 6.2705414838630791e-03 -4.0724459698103597e-04 -4.7853305055493849e-19 -4.0724459698103597e-04 -3.3039559702228685e-03  -1.1180956693583691e-02 9.7362528462249207e-19 -4.5483761348260508e-19 9.7362528462249207e-19 6.2957684464424778e-03 -2.6991697469820559e-04 -4.5483761348260508e-19 -2.6991697469820559e-04 -3.4646158805324038e-03  -1.1180959862222077e-02 9.7308941152675614e-19 -4.5401856372132379e-19 9.7308941152675614e-19 6.2881141887464777e-03 -2.5911731641869849e-04 -4.5401856372132379e-19 -2.5911731641869849e-04 -3.4597767638510856e-03  -1.1181050369802124e-02 9.7312729350447332e-19 -4.5553403714464342e-19 9.7312729350447332e-19 6.2865714326012347e-03 -2.6821438498128016e-04 -4.5553403714464342e-19 -2.6821438498128016e-04 -3.4486263967670643e-03  -1.1180953324721233e-02 9.7399224134260450e-19 -4.4377891005396302e-19 9.7399224134260450e-19 6.3129640461486152e-03 -2.0010893064298206e-04 -4.4377891005396302e-19 -2.0010893064298206e-04 -3.5347940403732104e-03  -1.1181010798857902e-02 9.7413462350946208e-19 -4.4521127738186059e-19 9.7413462350946208e-19 6.3133470359600478e-03 -2.1066625101668818e-04 -4.4521127738186059e-19 -2.1066625101668818e-04 -3.5280384542538943e-03  -1.1180946897551709e-02 9.7470462353842925e-19 -4.4434240359366119e-19 9.7470462353842925e-19 6.3228298442699069e-03 -2.1125834249183427e-04 -4.4434240359366119e-19 -2.1125834249183427e-04 -3.5439616739029582e-03  -1.1180938233063421e-02 9.7254154878081547e-19 -4.8026788054705134e-19 9.7254154878081547e-19 6.2668484040775451e-03 -4.1380361143827639e-04 -4.8026788054705134e-19 -4.1380361143827639e-04 -3.2848440748314755e-03  -1.1180989021061436e-02 9.7391845499704526e-19 -4.5564538071684455e-19 9.7391845499704526e-19 6.2992941623390289e-03 -2.7854272172221525e-04 -4.5564538071684455e-19 -2.7854272172221525e-04 -3.4656250166108758e-03  -1.1181016597184587e-02 9.7362446662364518e-19 -4.5815286721268763e-19 9.7362446662364518e-19 6.2912034119476526e-03 -2.9087516346761093e-04 -4.5815286721268763e-19 -2.9087516346761093e-04 -3.4423794646789509e-03  -1.1181026369221194e-02 9.7318422245553033e-19 -4.5258369667906577e-19 9.7318422245553033e-19 6.2907862467387159e-03 -2.5095022442835546e-04 -4.5258369667906577e-19 -2.5095022442835546e-04 -3.4703879567134326e-03  -1.1181058955894921e-02 9.7387846675910087e-19 -4.5365509777320117e-19 9.7387846675910087e-19 6.2999701088715370e-03 -2.6458741526272361e-04 -4.5365509777320117e-19 -2.6458741526272361e-04 -3.4751043340416495e-03  -1.1181162714042082e-02 9.7571410702943675e-19 -4.4109169714238438e-19 9.7571410702943675e-19 6.3415415755628882e-03 -1.9833292054903038e-04 -4.4109169714238438e-19 -1.9833292054903038e-04 -3.5776284778461509e-03  -1.1181021241426080e-02 9.7537107111188684e-19 -4.4072662517734656e-19 9.7537107111188684e-19 6.3398578747376078e-03 -1.9016369976792950e-04 -4.4072662517734656e-19 -1.9016369976792950e-04 -3.5720795278120026e-03  -1.1181005499165236e-02 9.7475612471503599e-19 -4.4157013852641167e-19 9.7475612471503599e-19 6.3275884331601157e-03 -1.9234526792430049e-04 -4.4157013852641167e-19 -1.9234526792430049e-04 -3.5600242418626941e-03  -1.1180961196653740e-02 9.7416380313909496e-19 -4.5244400200806391e-19 9.7416380313909496e-19 6.3062089250188217e-03 -2.5982266959306952e-04 -4.5244400200806391e-19 -2.5982266959306952e-04 -3.4882951388541324e-03  -1.1181061219907605e-02 9.7367714841722086e-19 -4.5669909204394775e-19 9.7367714841722086e-19 6.2925746536768674e-03 -2.8126908473947131e-04 -4.5669909204394775e-19 -2.8126908473947131e-04 -3.4498676488077312e-03  -1.1181034081452492e-02 9.7480747691821688e-19 -4.4316735853254480e-19 9.7480747691821688e-19 6.3278921673720710e-03 -2.0389868134684672e-04 -4.4316735853254480e-19 -2.0389868134684672e-04 -3.5537939307414839e-03  -1.1181060648578926e-02 9.7271522792809741e-19 -4.5695109949499096e-19 9.7271522792809741e-19 6.2793101252588491e-03 -2.7486436770496759e-04 -4.5695109949499096e-19 -2.7486436770496759e-04 -3.4365812000411249e-03  -1.1181079401186922e-02 9.7202323602363340e-19 -4.7426599543847661e-19 9.7202323602363340e-19 6.2619735173731501e-03 -3.7346246673506203e-04 -4.7426599543847661e-19 -3.7346246673506203e-04 -3.3170266776857181e-03  -1.1180983554659973e-02 9.7143621742457586e-19 -4.7548876758617043e-19 9.7143621742457586e-19 6.2506514191845840e-03 -3.7305014276953945e-04 -4.7548876758617043e-19 -3.7305014276953945e-04 -3.2932355207355378e-03  -1.1180980431665504e-02 9.7245028198958780e-19 -4.7591000323296908e-19 9.7245028198958780e-19 6.2650367405533668e-03 -3.8626909180576255e-04 -4.7591000323296908e-19 -3.8626909180576255e-04 -3.3081964241884632e-03  -1.1181054087846023e-02 9.7486621293807247e-19 -4.3129122845825628e-19 9.7486621293807247e-19 6.3474253346318841e-03 -1.1886171846499400e-04 -4.3129122845825628e-19 -1.1886171846499400e-04 -3.6161764308691871e-03  -1.1180948965499140e-02 9.7439722105476321e-19 -4.3239853689865464e-19 9.7439722105476321e-19 6.3379200654377866e-03 -1.2343503059328298e-04 -4.3239853689865464e-19 -1.2343503059328298e-04 -3.6041086524018330e-03  -1.1181028622424170e-02 9.7523030114960713e-19 -4.3197683528380194e-19 9.7523030114960713e-19 6.3516867676198440e-03 -1.2732824888594407e-04 -4.3197683528380194e-19 -1.2732824888594407e-04 -3.6184103691412634e-03  -1.1180969477546789e-02 9.7497797219735175e-19 -4.4982770514742759e-19 9.7497797219735175e-19 6.3211172861629009e-03 -2.4879477512364061e-04 -4.4982770514742759e-19 -2.4879477512364061e-04 -3.5136285212431502e-03  -1.1181039142126493e-02 9.7411908345125463e-19 -4.3370586749064408e-19 9.7411908345125463e-19 6.3316129168816890e-03 -1.3137176115105120e-04 -4.3370586749064408e-19 -1.3137176115105120e-04 -3.5953150255770960e-03  -1.1180985747754300e-02 9.7497488978391872e-19 -4.3315875169084756e-19 9.7497488978391872e-19 6.3456513400032112e-03 -1.3414063092789173e-04 -4.3315875169084756e-19 -1.3414063092789173e-04 -3.6092235252348313e-03  -1.1181019251878281e-02 9.7497830367741595e-19 -4.4698405644553000e-19 9.7497830367741595e-19 6.3237687088257659e-03 -2.3068876954433182e-04 -4.4698405644553000e-19 -2.3068876954433182e-04 -3.5313881309302353e-03  -1.1181034304644585e-02 9.7435784564619909e-19 -4.4602369612224600e-19 9.7435784564619909e-19 6.3152435961285657e-03 -2.1818583427570291e-04 -4.4602369612224600e-19 -2.1818583427570291e-04 -3.5263647450395528e-03  -1.1181089466618133e-02 9.7401726982099502e-19 -4.4740505548001285e-19 9.7401726982099502e-19 6.3085248450174243e-03 -2.2384360826620310e-04 -4.4740505548001285e-19 -2.2384360826620310e-04 -3.5123227765391975e-03  -1.1181072183110210e-02 9.7465613349983484e-19 -4.4019816964791208e-19 9.7465613349983484e-19 6.3277381694909207e-03 -1.8146058115837922e-04 -4.4019816964791208e-19 -1.8146058115837922e-04 -3.5650544482692306e-03  -1.1181026362417299e-02 9.7540759239473323e-19 -4.3949808201896924e-19 9.7540759239473323e-19 6.3414483101824860e-03 -1.8361238647096844e-04 -4.3949808201896924e-19 -1.8361238647096844e-04 -3.5820511357428542e-03  -1.1181039704739939e-02 9.7507234266042852e-19 -4.4558245316465710e-19 9.7507234266042852e-19 6.3286445659684852e-03 -2.2208588861991272e-04 -4.4558245316465710e-19 -2.2208588861991272e-04 -3.5426541162877959e-03  -1.1180949520359902e-02 9.7387740741017363e-19 -4.6198404187891546e-19 9.7387740741017363e-19 6.2962533548070031e-03 -3.1772919311283024e-04 -4.6198404187891546e-19 -3.1772919311283024e-04 -3.4274304298566255e-03  -1.1181017030434013e-02 9.7297350147751084e-19 -4.7711001494345508e-19 9.7297350147751084e-19 6.2699606484139612e-03 -4.0138537530113542e-04 -4.7711001494345508e-19 -4.0138537530113542e-04 -3.3123831230476236e-03  -1.1180978623986659e-02 9.7219919000506404e-19 -4.7729893927692642e-19 9.7219919000506404e-19 6.2594068185511179e-03 -3.9109251239109120e-04 -4.7729893927692642e-19 -3.9109251239109120e-04 -3.2917121516707636e-03  -1.1181068009539040e-02 9.7172837691833813e-19 -4.6963692993017421e-19 9.7172837691833813e-19 6.2554329317792458e-03 -3.4147159437583651e-04 -4.6963692993017421e-19 -3.4147159437583651e-04 -3.3351831042985770e-03  -1.1180973887366524e-02 9.7239173754092606e-19 -4.7093017412176427e-19 9.7239173754092606e-19 6.2643137902583454e-03 -3.5540886641177987e-04 -4.7093017412176427e-19 -3.5540886641177987e-04 -3.3365032036556763e-03  -1.1181011294192038e-02 9.7274982230257924e-19 -4.7002817364616500e-19 9.7274982230257924e-19 6.2717010220710431e-03 -3.5540717248872119e-04 -4.7002817364616500e-19 -3.5540717248872119e-04 -3.3537601757003409e-03  -1.1181083484672196e-02 9.7478941370100833e-19 -4.5845817781976044e-19 9.7478941370100833e-19 6.3099991153821424e-03 -3.0338654792640368e-04 -4.5845817781976044e-19 -3.0338654792640368e-04 -3.4598459041696875e-03  -1.1180936106032945e-02 9.7446931774529808e-19 -4.5478039196922394e-19 9.7446931774529808e-19 6.3087033423015609e-03 -2.7678128522886221e-04 -4.5478039196922394e-19 -2.7678128522886221e-04 -3.4770642844667255e-03  -1.1181055345425605e-02 9.7251003578239358e-19 -4.5847246738242422e-19 9.7251003578239358e-19 6.2748941433290722e-03 -2.8059095463427858e-04 -4.5847246738242422e-19 -2.8059095463427858e-04 -3.4198976713423778e-03  -1.1181004948855107e-02 9.7287774733991011e-19 -4.6817025133661033e-19 9.7287774733991011e-19 6.2741059196859891e-03 -3.4555260469566930e-04 -4.6817025133661033e-19 -3.4555260469566930e-04 -3.3676081073374230e-03  -1.1181014946787188e-02 9.7384079845031966e-19 -4.6819459766750697e-19 9.7384079845031966e-19 6.2883032934574834e-03 -3.5520224374580879e-04 -4.6819459766750697e-19 -3.5520224374580879e-04 -3.3833373840810215e-03  -1.1180995355610970e-02 9.7318126615832329e-19 -4.6654336510598210e-19 9.7318126615832329e-19 6.2801576380185067e-03 -3.3822485005666067e-04 -4.6654336510598210e-19 -3.3822485005666067e-04 -3.3828247978422341e-03  -1.1181044784588855e-02 9.7372261250642793e-19 -4.6968956871962232e-19 9.7372261250642793e-19 6.2869261395424418e-03 -3.6332085967251930e-04 -4.6968956871962232e-19 -3.6332085967251930e-04 -3.3734551820177846e-03  -1.1180996024635129e-02 9.7219380253389066e-19 -4.6663503695572440e-19 9.7219380253389066e-19 6.2644146160941499e-03 -3.2770994418188852e-04 -4.6663503695572440e-19 -3.2770994418188852e-04 -3.3621904522268655e-03  -1.1181037947830012e-02 9.7189657360371283e-19 -4.7257753130829129e-19 9.7189657360371283e-19 6.2580074266165315e-03 -3.6110666644462955e-04 -4.7257753130829129e-19 -3.6110666644462955e-04 -3.3209644926543505e-03  -1.1181064080467783e-02 9.7305032083530783e-19 -4.7216941240076566e-19 9.7305032083530783e-19 6.2763365637767462e-03 -3.7164192778151012e-04 -4.7216941240076566e-19 -3.7164192778151012e-04 -3.3469843719922511e-03  -1.1181003424012778e-02 9.7361334505029367e-19 -4.5134428242361140e-19 9.7361334505029367e-19 6.2992229908106412e-03 -2.4641265641728440e-04 -4.5134428242361140e-19 -2.4641265641728440e-04 -3.4843005912310173e-03  -1.1181042801898619e-02 9.7406243095285048e-19 -4.4985358406281455e-19 9.7406243095285048e-19 6.3065470562741850e-03 -2.4185393359816854e-04 -4.4985358406281455e-19 -2.4185393359816854e-04 -3.5013499887428003e-03  -1.1181039112515546e-02 9.7124071385882741e-19 -4.7060518820556799e-19 9.7124071385882741e-19 6.2482318472968272e-03 -3.4477041039249548e-04 -4.7060518820556799e-19 -3.4477041039249548e-04 -3.3258642240634110e-03  -1.1181070820790140e-02 9.7611644937841051e-19 -4.3565244632719698e-19 9.7611644937841051e-19 6.3594482850843409e-03 -1.6120684902987828e-04 -4.3565244632719698e-19 -1.6120684902987828e-04 -3.6118361341935423e-03  -1.1180974058632196e-02 9.7531463366321279e-19 -4.3487494252645981e-19 9.7531463366321279e-19 6.3490089467369299e-03 -1.4964099710966690e-04 -4.3487494252645981e-19 -1.4964099710966690e-04 -3.6065220588218671e-03  -1.1180990119866134e-02 9.7537304028548815e-19 -4.3589510027420032e-19 9.7537304028548815e-19 6.3471080999515537e-03 -1.5773720568443517e-04 -4.3589510027420032e-19 -1.5773720568443517e-04 -3.6014160632723562e-03  -1.1180950464397888e-02 9.7287710989732060e-19 -4.8873969018652939e-19 9.7287710989732060e-19 6.2737230639738255e-03 -4.7048451650346621e-04 -4.8873969018652939e-19 -4.7048451650346621e-04 -3.2464455209103168e-03  -1.1180996691266274e-02 9.7220651585681527e-19 -4.8671881881302882e-19 9.7220651585681527e-19 6.2625180583483903e-03 -4.4942698618715917e-04 -4.8671881881302882e-19 -4.4942698618715917e-04 -3.2417030389315375e-03  -1.1181215106909288e-02 9.7163003046764500e-19 -4.8915203154617801e-19 9.7163003046764500e-19 6.2546225158647047e-03 -4.5834136788170532e-04 -4.8915203154617801e-19 -4.5834136788170532e-04 -3.2186252648280481e-03  -1.1181046907866775e-02 9.7484975822362031e-19 -4.5359035357328444e-19 9.7484975822362031e-19 6.3147019768903098e-03 -2.7279049417815751e-04 -4.5359035357328444e-19 -2.7279049417815751e-04 -3.4898873601387961e-03  -1.1180932918552842e-02 9.7551419225106679e-19 -4.4229629501038531e-19 9.7551419225106679e-19 6.3405382799416885e-03 -2.0263412859572964e-04 -4.4229629501038531e-19 -2.0263412859572964e-04 -3.5666692457867436e-03  -1.1181006596391234e-02 9.7186776770950627e-19 -4.6812918502016715e-19 9.7186776770950627e-19 6.2597791355820231e-03 -3.3471326819457803e-04 -4.6812918502016715e-19 -3.3471326819457803e-04 -3.3505399058428973e-03  -1.1181010609823844e-02 9.7332349777820806e-19 -4.4605465350543121e-19 9.7332349777820806e-19 6.2992178174259891e-03 -2.0957314161151069e-04 -4.4605465350543121e-19 -2.0957314161151069e-04 -3.5111416674190087e-03  -1.1181015077395244e-02 9.7495214129123329e-19 -4.6126430862878422e-19 9.7495214129123329e-19 6.3106394697777842e-03 -3.2320126488872029e-04 -4.6126430862878422e-19 -3.2320126488872029e-04 -3.4464966796111133e-03  -1.1181063604397331e-02 9.7470769936839451e-19 -4.4852735998364323e-19 9.7470769936839451e-19 6.3180816284000183e-03 -2.3776574141807363e-04 -4.4852735998364323e-19 -2.3776574141807363e-04 -3.5170167881975658e-03  -1.1180973676375711e-02 9.7569192998055428e-19 -4.4436051796132613e-19 9.7569192998055428e-19 6.3387405608326553e-03 -2.1837564209475896e-04 -4.4436051796132613e-19 -2.1837564209475896e-04 -3.5560484961821544e-03  -1.1181087465205641e-02 9.7496257143678207e-19 -4.2783667610238169e-19 9.7496257143678207e-19 6.3546770741931208e-03 -9.3450350046830113e-05 -4.2783667610238169e-19 -9.3450350046830113e-05 -3.6331680307267866e-03  -1.1181034507953122e-02 9.7545133854778545e-19 -4.2664982129316500e-19 9.7545133854778545e-19 6.3649077644962583e-03 -8.7554171768982605e-05 -4.2664982129316500e-19 -8.7554171768982605e-05 -3.6440760799595919e-03  -1.1180985344959059e-02 9.7440538763747319e-19 -4.2737201338317156e-19 9.7440538763747319e-19 6.3476502672190922e-03 -8.4714628554217249e-05 -4.2737201338317156e-19 -8.4714628554217249e-05 -3.6268734906738688e-03  -1.1181016221168016e-02 9.7307505521156887e-19 -4.7599057400680780e-19 9.7307505521156887e-19 6.2768956757688135e-03 -3.9596703955912328e-04 -4.7599057400680780e-19 -3.9596703955912328e-04 -3.3268164860909008e-03  -1.1180963209047689e-02 9.7454550689955315e-19 -4.6260698156733655e-19 9.7454550689955315e-19 6.3065491672369542e-03 -3.2863678014522808e-04 -4.6260698156733655e-19 -3.2863678014522808e-04 -3.4363114994854609e-03  -1.1181075293350887e-02 9.7578083066851634e-19 -4.5357953362398933e-19 9.7578083066851634e-19 6.3292280522251254e-03 -2.8131979747191932e-04 -4.5357953362398933e-19 -2.8131979747191932e-04 -3.5049510178488943e-03  -1.1181025186128023e-02 9.7602791844574236e-19 -4.5236079186025720e-19 9.7602791844574236e-19 6.3353261012762231e-03 -2.7626651941744374e-04 -4.5236079186025720e-19 -2.7626651941744374e-04 -3.5183460584709524e-03  -1.1181027507008398e-02 9.7627791342588363e-19 -4.5119951297761797e-19 9.7627791342588363e-19 6.3403188538670467e-03 -2.7024186509395427e-04 -4.5119951297761797e-19 -2.7024186509395427e-04 -3.5277103755481315e-03  -1.1180922890052809e-02 9.7203828484070355e-19 -4.8307543861717438e-19 9.7203828484070355e-19 6.2602760522651284e-03 -4.2646589676193262e-04 -4.8307543861717438e-19 -4.2646589676193262e-04 -3.2620551349065051e-03  -1.1180980755179669e-02 9.7278087450682908e-19 -4.8278286540017121e-19 9.7278087450682908e-19 6.2701255450103846e-03 -4.3077164660687252e-04 -4.8278286540017121e-19 -4.3077164660687252e-04 -3.2725250819457680e-03  -1.1181037987287363e-02 9.7192480922345634e-19 -4.8114152907220125e-19 9.7192480922345634e-19 6.2573536619994841e-03 -4.1363116193726153e-04 -4.8114152907220125e-19 -4.1363116193726153e-04 -3.2705758816804265e-03  -1.1181102091426446e-02 9.7237627525284636e-19 -4.5446135990892886e-19 9.7237627525284636e-19 6.2772198679802325e-03 -2.5419043280980704e-04 -4.5446135990892886e-19 -2.5419043280980704e-04 -3.4441831483198039e-03  -1.1181009936111236e-02 9.7266455921866710e-19 -4.5331958614662410e-19 9.7266455921866710e-19 6.2820297664885763e-03 -2.4944853426090726e-04 -4.5331958614662410e-19 -2.4944853426090726e-04 -3.454700044418