<?xml version="1.0"?>
<VTKFile type="UnstructuredGrid"  version="0.1"  >
<UnstructuredGrid>
<Piece  NumberOfPoints="10412" NumberOfCells="20437">
<Points>
<DataArray  type="Float64"  NumberOfComponents="3"  format="ascii">3.377330806630044e-23 9.249241761859685e-07 6.822126094104899e-08  3.361254692808431e-23 9.260002580669399e-07 7.074535042635212e-08  3.398542256333146e-23 9.274353221203229e-07 6.882184933582581e-08  3.384682389229446e-23 9.282870979698116e-07 7.092201103178713e-08  3.347231164578849e-23 9.272645250385755e-07 7.327274452817096e-08  3.422503494552066e-23 9.266859539086698e-07 6.591424465389144e-08  3.432964615901317e-23 9.288481346486294e-07 6.713417134964383e-08  3.417927189344058e-23 9.296839662732811e-07 6.932445394709314e-08  3.376706805473849e-23 9.292102907499433e-07 7.256358053251419e-08  3.360272842264584e-23 9.293137304777222e-07 7.414726007200244e-08  3.391638436234728e-23 9.309574820573006e-07 7.296585010525694e-08  3.370279385381123e-23 9.310482521456282e-07 7.498047246289024e-08  3.452172729225416e-23 9.286280072242704e-07 6.518393088510686e-08  3.465795948995875e-23 9.278083138861462e-07 6.313716699734602e-08  3.402693224753887e-23 9.302246143127101e-07 7.123725553155556e-08  3.446050178043401e-23 9.305022010585882e-07 6.760959510386214e-08  3.465521146072174e-23 9.302898508146931e-07 6.564345597278846e-08  3.442633180785699e-23 9.315162004794754e-07 6.893137027627958e-08  3.419869044128435e-23 9.319339513961405e-07 7.139953234028602e-08  3.393307374492826e-23 9.320051816249339e-07 7.386322507854473e-08  3.462060672421894e-23 9.320158102676773e-07 6.768110718261125e-08  3.480400162820731e-23 9.297539108555439e-07 6.376733332795053e-08  3.417692864546583e-23 9.329399278243592e-07 7.260152159958316e-08  3.424362965655404e-23 9.311742767208584e-07 7.023508119871815e-08  3.46084761308052e-23 9.329305328524711e-07 6.870509243936088e-08  3.357958856143181e-23 9.327627185063942e-07 7.780467344135625e-08  3.346813886314959e-23 9.331632466319337e-07 7.920905120620451e-08  3.367512747683025e-23 9.339154367363651e-07 7.80968536237515e-08  3.491495868072026e-23 9.31189362518916e-07 6.420337271061978e-08  3.467135750923647e-23 9.313733866154598e-07 6.658156109740629e-08  3.442236555619136e-23 9.3254501336338e-07 6.999590797923095e-08  3.369398725313887e-23 9.321992543449678e-07 7.621079746924272e-08  3.37923819027352e-23 9.33528187039995e-07 7.665346994975532e-08  3.48064288118252e-23 9.325320622320669e-07 6.652362257799935e-08  3.496688385974539e-23 9.295113161509742e-07 6.20576259088605e-08  3.384699668256893e-23 9.323179657174825e-07 7.495132242302661e-08  3.402845024762305e-23 9.331272747156481e-07 7.412624300526667e-08  3.48457747168018e-23 9.317921226666012e-07 6.542928660655134e-08  3.390420604299727e-23 9.332947362077335e-07 7.541279680466332e-08  3.478344989583103e-23 9.332831030907047e-07 6.748163911165454e-08  3.358033632626954e-23 9.343946413522985e-07 7.94298610203714e-08  3.44115747828433e-23 9.334772769279171e-07 7.10253661894268e-08  3.506239648421486e-23 9.309412075447385e-07 6.2627216062685e-08  3.377264925185569e-23 9.349367910442401e-07 7.823980987229638e-08  3.461244704285385e-23 9.338818005044687e-07 6.962059329531328e-08  3.422215458933197e-23 9.340261554265535e-07 7.328039011389133e-08  3.387164077551432e-23 9.34664005042161e-07 7.707538749209353e-08  3.493154208578951e-23 9.335840679197696e-07 6.644870807769255e-08  3.478292414739249e-23 9.341127429190234e-07 6.831601446091707e-08  3.493138322192702e-23 9.343163795672584e-07 6.718245064364511e-08  3.497220799752905e-23 9.329713107434081e-07 6.546966493141724e-08  3.408541189155813e-23 9.341336710936811e-07 7.461957450649878e-08  3.398045827770769e-23 9.34333439632433e-07 7.576468115770671e-08  3.441108162866298e-23 9.344492349155833e-07 7.200176611505841e-08  3.51431259650847e-23 9.321561938948225e-07 6.311505589284263e-08  3.503532671923199e-23 9.324886147084259e-07 6.441844599335217e-08  3.495611265013475e-23 9.351291539824659e-07 6.77724821715298e-08  3.363534545559423e-23 9.353898147292272e-07 7.99295562086428e-08  3.371221047653201e-23 9.352947741645014e-07 7.914217708461056e-08  3.376651473986136e-23 9.36022216393403e-07 7.93804899933228e-08  3.383872478740302e-23 9.358149269466642e-07 7.852279026018195e-08  3.393666567547454e-23 9.35614587424931e-07 7.744027764440235e-08  3.462582831564255e-23 9.348449535002685e-07 7.046321850082316e-08  3.481264095151086e-23 9.351324958246077e-07 6.906810219059314e-08  3.504451890896233e-23 9.344655313918433e-07 6.6312566792281e-08  3.370089442310428e-23 9.36213795122256e-07 8.016312399036602e-08  3.426022336126544e-23 9.349607767490498e-07 7.387211842219962e-08  3.508940317980481e-23 9.340590291870607e-07 6.550178301661644e-08  3.405664321054534e-23 9.35382951667278e-07 7.612798032227399e-08  3.522554186187097e-23 9.332806146959331e-07 6.349714028984104e-08  3.509346968761806e-23 9.352733070337957e-07 6.667943301720642e-08  3.413577584913461e-23 9.350386703577457e-07 7.50709355694147e-08  3.458942268003379e-23 9.354774072564693e-07 7.142358507094758e-08  3.436207060878767e-23 9.34870350066031e-07 7.286433328720116e-08  3.51778897839769e-23 9.35002814565249e-07 6.564855191965133e-08  3.441843407407157e-23 9.355965587116149e-07 7.308286497028535e-08  3.514627998836082e-23 9.336206369616972e-07 6.455109004361525e-08  3.388140618438989e-23 9.36532587015227e-07 7.885601048161334e-08  3.395478484737059e-23 9.363710322543091e-07 7.803351948218179e-08  3.448922708284079e-23 9.354581721842899e-07 7.230683170713326e-08  3.47124335892137e-23 9.357968702626134e-07 7.063506430760145e-08  3.435903692008906e-23 9.357576983299948e-07 7.377900658975022e-08  3.40881034816421e-23 9.361606619048342e-07 7.662232162945343e-08  3.382123942155684e-23 9.367286110427585e-07 7.959396853049493e-08  3.523968691644341e-23 9.346578616573948e-07 6.474697992629963e-08  3.49938148594764e-23 9.359398789279267e-07 6.824361580510646e-08  3.479759571216331e-23 9.357836244418794e-07 6.985474627650341e-08  3.398888705570264e-23 9.370109013906723e-07 7.836622323307148e-08  3.509110706041709e-23 9.359431992753096e-07 6.737060591268429e-08  3.491650289623524e-23 9.360942201249379e-07 6.909432125980591e-08  3.376528030942448e-23 9.369482334916801e-07 8.031762585251101e-08  3.471433564461827e-23 9.36327730797015e-07 7.114879264998036e-08  3.446475011630479e-23 9.362753112427898e-07 7.334443968037448e-08  3.40329079259098e-23 9.363636857361223e-07 7.732250282919849e-08  3.416360199487034e-23 9.36132669909696e-07 7.591429948223178e-08  3.413628587746631e-23 9.368294709015817e-07 7.685714218644148e-08  3.525521607137267e-23 9.358645364087617e-07 6.581378048496098e-08  3.511816837751499e-23 9.365944460211981e-07 6.777810598337618e-08  3.532352095474638e-23 9.343776172489148e-07 6.371162563049522e-08  3.488698901546516e-23 9.364070332634654e-07 6.967297180321022e-08  3.482758340248392e-23 9.365179143606899e-07 7.031893109340685e-08  3.498023282224578e-23 9.368027660768655e-07 6.922883906966679e-08  3.406227723111376e-23 9.3690749339613e-07 7.760177530526092e-08  3.392978911738151e-23 9.371861101303843e-07 7.907373887878632e-08  3.371562680716229e-23 9.371437045781696e-07 8.096033592757175e-08  3.382161817961415e-23 9.376416105908652e-07 8.050355652931e-08  3.504251779417677e-23 9.366612191415509e-07 6.852627898159368e-08  3.453744085961593e-23 9.362327239997982e-07 7.264711242840431e-08  3.420265685978995e-23 9.367276265657664e-07 7.615748118810422e-08  3.426952632901677e-23 9.357114701386294e-07 7.453901812758255e-08  3.531806932570221e-23 9.355446104370179e-07 6.492772272766203e-08  3.518917809499956e-23 9.365744018065054e-07 6.711846309427715e-08  3.438797813921689e-23 9.363351711481337e-07 7.409580008052959e-08  3.521172557627166e-23 9.362065029824172e-07 6.654747461367854e-08  3.419971067686034e-23 9.358614553512604e-07 7.531784683028611e-08  3.373264488620474e-23 9.37617181853222e-07 8.12805279737559e-08  3.46166904854257e-23 9.36223998272781e-07 7.192456953085479e-08  3.492866999440782e-23 9.369171106795686e-07 6.980762033684425e-08  3.386952118201445e-23 9.373633249851536e-07 7.979379903607855e-08  3.449661201543203e-23 9.368728304090919e-07 7.36549723726032e-08  3.538679777645569e-23 9.352781796793451e-07 6.404224111958296e-08  3.481488077904147e-23 9.370082678753622e-07 7.092369966848317e-08  3.538067927306358e-23 9.363485475023453e-07 6.516771952177684e-08  3.51486357240052e-23 9.371953725745834e-07 6.810460707616088e-08  3.431433081062716e-23 9.364158199178495e-07 7.483980501343242e-08  3.523634896393654e-23 9.371875197392838e-07 6.730670361152085e-08  3.442304114708674e-23 9.369535658985487e-07 7.439837533259031e-08  3.528196500521481e-23 9.368614399224627e-07 6.656975102169384e-08  3.382133898615007e-23 9.380965167482208e-07 8.096097743782712e-08  3.500872878776233e-23 9.373490508205021e-07 6.951845497393955e-08  3.532388033690213e-23 9.365935707314293e-07 6.592434208632421e-08  3.426173044062817e-23 9.365805789144511e-07 7.547834602348806e-08  3.507717040188104e-23 9.372717006407182e-07 6.882463753847235e-08  3.492808052062312e-23 9.373495961499844e-07 7.024541531509425e-08  3.398042719410432e-23 9.378045508057591e-07 7.923607230724191e-08  3.47202980019721e-23 9.368537239032615e-07 7.162108161551295e-08  3.544653634559168e-23 9.36094111313049e-07 6.432009555788595e-08  3.457124827430483e-23 9.368463040839577e-07 7.295618239217319e-08  3.402483019542519e-23 9.375794514866123e-07 7.861102630768955e-08  3.424286962448567e-23 9.37354432527082e-07 7.642208276522148e-08  3.40941260340074e-23 9.374782021775769e-07 7.788561557301971e-08  3.416535976624842e-23 9.373912427111467e-07 7.715703968663588e-08  3.435989348394047e-23 9.370720304482427e-07 7.508562346671401e-08  3.391215913828191e-23 9.378916659398561e-07 7.993809142286513e-08  3.375668502674574e-23 9.380772463586101e-07 8.152405814317927e-08  3.389708612958944e-23 9.382502208463585e-07 8.043241192202908e-08  3.516805305459221e-23 9.376941967556843e-07 6.842
[...]
<PointData  Vectors="f_25"> 
<DataArray  type="Float64"  Name="f_25"  NumberOfComponents="3" format="ascii">0.0000000000000000e+00 2.1746160025692681e-11 4.9643782644560060e-11  0.0000000000000000e+00 1.8075957318387575e-11 6.0105984505267414e-11  0.0000000000000000e+00 1.7607373911829275e-11 5.8519906622483893e-11  0.0000000000000000e+00 1.4548098729029754e-11 6.8145224136102929e-11  0.0000000000000000e+00 1.3741089613207231e-11 7.1904445718927271e-11  0.0000000000000000e+00 2.0788051134173897e-11 4.7032973770892809e-11  0.0000000000000000e+00 1.6258113540709575e-11 5.6650211609840023e-11  0.0000000000000000e+00 1.3265748665734629e-11 6.7034929097661915e-11  0.0000000000000000e+00 1.1485387078076265e-11 7.6942553422367457e-11  0.0000000000000000e+00 9.8520829727926490e-12 8.2652150092933568e-11  0.0000000000000000e+00 8.0393606188724792e-12 8.4986612464675150e-11  0.0000000000000000e+00 5.9559446795075919e-12 9.2744523344888537e-11  0.0000000000000000e+00 1.7530761888168057e-11 4.9003446095678551e-11  0.0000000000000000e+00 2.0081994668960495e-11 3.9845994115010970e-11  0.0000000000000000e+00 1.0787071348966454e-11 7.5854483777604898e-11  0.0000000000000000e+00 1.2551704275344466e-11 6.2839648673969331e-11  0.0000000000000000e+00 1.3895872536787100e-11 5.4565143106037917e-11  0.0000000000000000e+00 9.5790400168602713e-12 7.1091746504911560e-11  0.0000000000000000e+00 7.1883009959409663e-12 8.2465140115182871e-11  0.0000000000000000e+00 5.1909508444412670e-12 9.2543474126834641e-11  0.0000000000000000e+00 8.9884510367700381e-12 6.7320693308480930e-11  0.0000000000000000e+00 1.5751756043919623e-11 4.5987359880249349e-11  0.0000000000000000e+00 4.0882368416166826e-12 9.1098173502742927e-11  0.0000000000000000e+00 9.5951369935234974e-12 7.5236972275091553e-11  0.0000000000000000e+00 6.2615382096007628e-12 7.4339115538669668e-11  0.0000000000000000e+00 -4.1718521096175544e-13 1.1120388436612317e-10  0.0000000000000000e+00 -2.9713835686303004e-12 1.1859417205445576e-10  0.0000000000000000e+00 -3.0360343626303464e-12 1.1814834369790881e-10  0.0000000000000000e+00 1.2264133745824412e-11 5.0657876954789964e-11  0.0000000000000000e+00 1.1028507214509745e-11 6.1001642175873824e-11  0.0000000000000000e+00 6.6186709430537797e-12 7.8709043659831495e-11  0.0000000000000000e+00 2.4824243306836048e-12 1.0245271810120866e-10  0.0000000000000000e+00 -6.5505503097029178e-13 1.1036660894036784e-10  0.0000000000000000e+00 8.1436083310619868e-12 6.3689114071656182e-11  0.0000000000000000e+00 1.6814089272644077e-11 3.8811238241985113e-11  0.0000000000000000e+00 3.4951532118539884e-12 9.8111725441599099e-11  0.0000000000000000e+00 2.5095647186808680e-12 9.8195970644465509e-11  0.0000000000000000e+00 1.0376907031102122e-11 5.7168536298906893e-11  0.0000000000000000e+00 1.0225347710885699e-12 1.0424045672037040e-10  0.0000000000000000e+00 5.8092249147276581e-12 6.9910380347007508e-11  0.0000000000000000e+00 -5.6472470829642098e-12 1.2610638196240998e-10  0.0000000000000000e+00 3.7542615006356853e-12 8.6267616490622519e-11  0.0000000000000000e+00 1.3289654758855632e-11 4.3590592888702675e-11  0.0000000000000000e+00 -5.4212339391702967e-12 1.2394661828343767e-10  0.0000000000000000e+00 3.3819585702334620e-12 8.1317923839392622e-11  0.0000000000000000e+00 1.0167467089870885e-12 9.8176525795124437e-11  0.0000000000000000e+00 -3.5863313009168195e-12 1.1755667737165847e-10  0.0000000000000000e+00 5.3176378257318181e-12 6.5994779527716347e-11  0.0000000000000000e+00 3.2483134467274165e-12 7.6026281073337575e-11  0.0000000000000000e+00 3.0248910488460821e-12 7.1292860617494958e-11  0.0000000000000000e+00 7.2717262600253959e-12 6.0067952031197000e-11  0.0000000000000000e+00 -2.2449612995281378e-13 1.0449642288986253e-10  0.0000000000000000e+00 -1.6317228675387746e-12 1.1033602210380324e-10  0.0000000000000000e+00 7.1356097853569487e-13 9.4071243135556528e-11  0.0000000000000000e+00 1.0059162598798200e-11 4.7872910449938075e-11  0.0000000000000000e+00 8.8541067042852813e-12 5.4297691337500444e-11  0.0000000000000000e+00 4.6302956728195540e-13 7.6299995013047341e-11  0.0000000000000000e+00 -8.4116196665284543e-12 1.3366616296425967e-10  0.0000000000000000e+00 -7.2774064378769170e-12 1.2973809261568784e-10  0.0000000000000000e+00 -9.2283079172488313e-12 1.3469960193759031e-10  0.0000000000000000e+00 -7.8034537597951335e-12 1.2971725931517980e-10  0.0000000000000000e+00 -6.2181628487168973e-12 1.2379156787996862e-10  0.0000000000000000e+00 3.7421746949468409e-13 8.8308536804055187e-11  0.0000000000000000e+00 7.6498601607212285e-14 8.2570836093666892e-11  0.0000000000000000e+00 2.8128501233465376e-12 6.7544090212648751e-11  0.0000000000000000e+00 -1.0598912393748219e-11 1.3930012389827293e-10  0.0000000000000000e+00 -1.7525997860042502e-12 1.0458184956846106e-10  0.0000000000000000e+00 4.2012177652273442e-12 6.2736933988700217e-11  0.0000000000000000e+00 -4.4876850183155108e-12 1.1671419238977458e-10  0.0000000000000000e+00 6.8971865634667084e-12 5.1756239817108219e-11  0.0000000000000000e+00 3.0222658782432307e-13 7.1344567993665047e-11  0.0000000000000000e+00 -2.8034318306190211e-12 1.1037012713484743e-10  0.0000000000000000e+00 -1.8482812790723214e-12 9.5010505794676645e-11  0.0000000000000000e+00 -9.1448576201904784e-13 9.9592358560426477e-11  0.0000000000000000e+00 1.3487144684419150e-12 6.5630992380180146e-11  0.0000000000000000e+00 -3.0138320174445148e-12 1.0338334258928609e-10  0.0000000000000000e+00 5.6901523235885795e-12 5.7321199318577307e-11  0.0000000000000000e+00 -9.9235541088797835e-12 1.3500015731343616e-10  0.0000000000000000e+00 -8.6960594380028080e-12 1.3030549077594203e-10  0.0000000000000000e+00 -2.2282053284625853e-12 9.9155112620283929e-11  0.0000000000000000e+00 -2.4745359844853174e-12 9.2248580800475887e-11  0.0000000000000000e+00 -3.8772602660447833e-12 1.0733627719324276e-10  0.0000000000000000e+00 -6.9030028268555575e-12 1.2261458043292693e-10  0.0000000000000000e+00 -1.1195873115767287e-11 1.3951929015443024e-10  0.0000000000000000e+00 2.5851449802551609e-12 6.0478427876844095e-11  0.0000000000000000e+00 -2.1266557509302964e-12 8.0852755109493489e-11  0.0000000000000000e+00 -2.1259097451954677e-12 8.8385058550560425e-11  0.0000000000000000e+00 -1.0692640358116642e-11 1.3514326697258642e-10  0.0000000000000000e+00 -1.9392454033397070e-12 7.6493317112780410e-11  0.0000000000000000e+00 -2.8611751008745138e-12 8.5546307851587738e-11  0.0000000000000000e+00 -1.2572885725265894e-11 1.4414468587325433e-10  0.0000000000000000e+00 -4.2707745062101543e-12 9.6570167553437424e-11  0.0000000000000000e+00 -5.1047987555737327e-12 1.0726057944905949e-10  0.0000000000000000e+00 -8.0555883271826512e-12 1.2690781977332008e-10  0.0000000000000000e+00 -6.3092532115747115e-12 1.1912349800714636e-10  0.0000000000000000e+00 -8.9271578328716479e-12 1.2689421363589601e-10  0.0000000000000000e+00 -1.3814373802765725e-12 6.8458995801273054e-11  0.0000000000000000e+00 -4.1104236361354091e-12 8.0286378237583867e-11  0.0000000000000000e+00 3.6348407769457678e-12 5.4919229663608655e-11  0.0000000000000000e+00 -4.0075797233070913e-12 8.9408826265746725e-11  0.0000000000000000e+00 -4.5485568922088282e-12 9.3023984050657360e-11  0.0000000000000000e+00 -5.1475012525411230e-12 8.8327294809691296e-11  0.0000000000000000e+00 -9.7471949930598091e-12 1.3090726491797249e-10  0.0000000000000000e+00 -1.1842417423222945e-11 1.3948525114841885e-10  0.0000000000000000e+00 -1.3863670755638644e-11 1.4830730289585915e-10  0.0000000000000000e+00 -1.4575944129004178e-11 1.4895925049498027e-10  0.0000000000000000e+00 -4.4988869133298850e-12 8.4310364515881161e-11  0.0000000000000000e+00 -4.6276989005786241e-12 1.0366165784194561e-10  0.0000000000000000e+00 -8.1178195318952814e-12 1.2298734326310093e-10  0.0000000000000000e+00 -4.1901460565977832e-12 1.1076604451134841e-10  0.0000000000000000e+00 -2.0627778294809311e-13 6.3288684843656769e-11  0.0000000000000000e+00 -3.9320321138016957e-12 7.6840150814124638e-11  0.0000000000000000e+00 -5.6840813175469828e-12 1.1118736459987276e-10  0.0000000000000000e+00 -2.6288641870202952e-12 7.2997083991017688e-11  0.0000000000000000e+00 -5.1317659285213670e-12 1.1508221505986485e-10  0.0000000000000000e+00 -1.5456392132096096e-11 1.5261151434791786e-10  0.0000000000000000e+00 -4.2612497945554731e-12 1.0006806592997773e-10  0.0000000000000000e+00 -5.6688327721253824e-12 9.1655967032166122e-11  0.0000000000000000e+00 -1.3048044875779531e-11 1.4394141144462653e-10  0.0000000000000000e+00 -7.0353200543453813e-12 1.1113358205074239e-10  0.0000000000000000e+00 7.8371044330944933e-13 5.8319168578851399e-11  0.0000000000000000e+00 -6.3087250477163162e-12 9.7708387951057615e-11  0.0000000000000000e+00 -2.8577197527775472e-12 6.6259464625054183e-11  0.0000000000000000e+00 -6.1713239562443847e-12 8.3599242826391459e-11  0.0000000000000000e+00 -6.3491492793702143e-12 1.1516397895279432e-10  0.0000000000000000e+00 -6.0021201741539045e-12 7.9389182985517951e-11  0.0000000000000000e+00 -7.6683149873441311e-12 1.1520547675960117e-10  0.0000000000000000e+00 -4.7914621519003751e-12 7.4713755590352195e-11  0.0000000000000000e+00 -1.6320664435196044e-11 1.5382237846085247e-10  0.0000000000000000e+00 -7.0113114850522934e-12 9.1459159833593381e-11  0.0000000000000000e+00 -3.7903783627367899e-12 7.0721031300757077e-11  0.0000000000000000e+00 -7.2418307968378316e-12 1.1900147426099245e-10  0.0000000000000000e+00 -6.5821201172298336e-12 8.7590076303042164e-11  0.0000000000000000e+00 -7.2071583779793943e-12 9.5282744660943870e-11  0.0000000000000000e+00 -1.3677448622717351e-11 1.4356362048835517e-10  0.0000000000000000e+00 -6.0701594885716862e-12 1.0075109538426164e-10  0.0000000000000000e+00 -1.8945682175736652e-12 6.1375815840894627e-11  0.0000000000000000e+00 -6.6165806303034136e-12 1.0750249861726441e-10  0.0000000000000000e+00 -1.2473521871850668e-11 1.3926386735372710e-10  0.0000000000000000e+00 -1.0108883933589509e-11 1.2717087768930195e-10  0.0000000000000000e+00 -1.1568055351386610e-11 1.3512535062040197e-10  0.0000000000000000e+00 -1.0749054038435143e-11 1.3104858675736882e-10  0.0000000000000000e+00 -8.4178729003797842e-12 1.1916740972822348e-10  0.0000000000000000e+00 -1.4626999758640555e-11 1.4754395101928910e-10  0.0000000000000000e+00 -1.6956489547024796e-11 1.5652520604926301e-10  0.0000000000000000e+00 -1.6145988723821550e-11 1.5202805942554212e-10  0.0000000000000000e+00 -7.9299012562782232e-12 8.6676733330958827e-11  0.0000000000000000e+00 -4.3286707366466081e-12 6.4215994202705947e-11  0.0000000000000000e+00 -8.6056588978256100e-12 9.4449779748826526e-11  0.0000000000000000e+00 -1.1831672859607342e-11 1.3150159962502913e-10  0.0000000000000000e+00 -7.7857596392928105e-12 8.3132770102465174e-11  0.0000000000000000e+00 -9.0835822349459616e-12 1.2260945497241945e-10  0.0000000000000000e+00 -8.4379460036596495e-12 9.0751694273209063e-11  0.0000000000000000e+00 -6.3310819474743769e-12 1.0428842857854605e-10  0.0000000000000000e+00 -1.2394638230587062e-11 1.3481616096623240e-10  0.0000000000000000e+00 -6.6847176565687108e-12 7.6488428601380736e-11  0.0000000000000000e+00 -1.5203593160137400e-11 1.4748771816794797e-10  0.0000000000000000e+00 -1.3302878718301214e-11 1.3917190782545112e-10  0.0000000000000000e+00 -7.5356712024040108e-12 1.0108820592557720e-10  0.0000000000000000e+00 -9.0363748575592997e-12 1.1524730131154715e-10  0.0000000000000000e+00 -1.3806990066081366e-11 1.4216356481501671e-10  0.0000000000000000e+00 -8.2798778019125547e-12 9.9555611960328111e-11  0.0000000000000000e+00 -1.5064908951380386e-11 1.4560830550442523e-10  0.0000000000000000e+00 -1.1518558725327916e-11 1.2902868464357111e-10  0.0000000000000000e+00 -8.1983804839925255e-12 7.9933890162877639e-11  0.0000000000000000e+00 -8.4926649009985442e-12 1.1131807090639725e-10  0.0000000000000000e+00 -1.7174621425392512e-11 1.5521318963095951e-10  0.0000000000000000e+00 -1.7806647235064400e-11 1.5770753935414195e-10  0.0000000000000000e+00 -1.0804952984797300e-11 1.2602937279292091e-10  0.0000000000000000e+00 -5.9942609277187497e-12 7.2933626966444029e-11  0.0000000000000000e+00 -9.4939759132659902e-12 9.8521531155296747e-11  0.0000000000000000e+00 -8.0418067276322896e-12 1.0458011331231269e-10  0.0000000000000000e+00 -5.2469880867153067e-12 6.8710094691962190e-11  0.0000000000000000e+00 -9.6447557694741328e-12 1.1890910301890773e-10  0.0000000000000000e+00 -1.2785462572164207e-11 1.3166826140338628e-10  0.0000000000000000e+00 -9.8294815305941226e-12 9.4170810698812042e-11  0.0000000000000000e+00 -1.7552517120035251e-11 1.5513682431983010e-10  0.0000000000000000e+00 -8.1372094230555450e-12 1.0790846720118877e-10  0.0000000000000000e+00 -1.5877976938093609e-11 1.5009088713725524e-10  0.0000000000000000e+00 -8.1408747920429213e-12 7.5561530508258840e-11  0.0000000000000000e+00 -1.8258849883940384e-11 1.5766417092411609e-10  0.0000000000000000e+00 -1.3838508974927276e-11 1.3800762037431080e-10  0.0000000000000000e+00 -1.4709573551948771e-11 1.4314696084570317e-10  0.0000000000000000e+00 -9.5269216403946964e-12 8.9054938130074086e-11  0.0000000000000000e+00 -9.2838092629829997e-12 8.6055866890742272e-11  0.0000000000000000e+00 -1.6951307130273917e-11 1.5276466095075866e-10  0.0000000000000000e+00 -1.6444656454431719e-11 1.5050067885348649e-10  0.0000000000000000e+00 -1.0400618474629638e-11 1.2274513134133254e-10  0.0000000000000000e+00 -9.0525694393507433e-12 1.0293559644039812e-10  0.0000000000000000e+00 -1.3476572120487419e-11 1.3496238224588046e-10  0.0000000000000000e+00 -9.9433975255801808e-12 1.0171766087239415e-10  0.0000000000000000e+00 -1.9156467215591968e-11 1.6058361810980211e-10  0.0000000000000000e+00 -1.2271649561629228e-11 1.2889312797367896e-10  0.0000000000000000e+00 -7.3087231840906283e-12 7.1310728006075826e-11  0.0000000000000000e+00 -1.0390229096906148e-11 1.1526566482960306e-10  0.0000000000000000e+00 -7.0253271399772620e-12 6.6900978277080243e-11  0.0000000000000000e+00 -9.3040843422534990e-12 8.3462286373359010e-11  0.0000000000000000e+00 -1.0212466128231648e-11 9.6743858442723967e-11  0.0000000000000000e+00 -1.0968127809466037e-11 1.1891242895458745e-10  0.0000000000000000e+00 -1.0584699948697830e-11 1.0468718003971985e-10  0.0000000000000000e+00 -9.5690277531377901e-12 1.0837845404104154e-10  0.0000000000000000e+00 -1.3504307018684399e-11 1.3139105862821457e-10  0.0000000000000000e+00 -9.5960896247105610e-12 7.8772275808745049e-11  0.0000000000000000e+00 -1.8002008361552166e-11 1.5520234242604585e-10  0.0000000000000000e+00 -1.5997528856630948e-11 1.4848446969183345e-10  0.0000000000000000e+00 -1.0106954860121642e-11 9.2010472304538525e-11  0.0000000000000000e+00 -1.0003992602742303e-11 1.1164988009726829e-10  0.0000000000000000e+00 -1.1874598592557861e-11 1.2631936478925108e-10  0.0000000000000000e+00 -1.7522572500060607e-11 1.5312468198519503e-10  0.0000000000000000e+00 -9.0938479925166143e-12 7.3477714665883947e-11  0.0000000000000000e+00 -1.4642430936993196e-11 1.4126549070677141e-10  0.0000000000000000e+00 -1.0629836680241448e-11 8.8367859788365924e-11  0.0000000000000000e+00 -1.0530382215097874e-11 8.5878940001839947e-11  0.0000000000000000e+00 -1.6271415893577765e-11 1.4809436915436566e-10  0.0000000000000000e+00 -1.7062295970513054e-11 1.5080727513756099e-10  0.0000000000000000e+00 -1.4969331393984203e-11 1.4036249150369084e-10  0.0000000000000000e+00 -1.5629581335535727e-11 1.4426029516391664e-10  0.0000000000000000e+00 -1.0962790376012863e-11 1.0128141927101381e-10  0.0000000000000000e+00 -1.1019382010786737e-11 9.4510701600259783e-11  0.0000000000000000e+00 -1.4084546287114763e-11 1.3401934747564393e-10  0.0000000000000000e+00 -9.8985527592581843e-12 1.0609673268005443e-10  0.0000000000000000e+00 -1.8632830475025902e-11 1.5754277138299663e-10  0.0000000000000000e+00 -1.4685286248203555e-11 1.3819659075527029e-10  0.0000000000000000e+00 -1.1384766829048950e-11 1.0374376772539334e-10  0.0000000000000000e+00 -1.0552518210988456e-11 8.3980168052498876e-11  0.0000000000000000e+00 -1.1404537613590658e-11 1.2193445929212936e-10  0.0000000000000000e+00 -1.1539742236461946e-11 1.1539442371720067e-10  0.0000000000000000e+00 -1.1141828447433543e-11 9.9295716987501700e-11  0.0000000000000000e+00 -1.3097399478124207e-11 1.2892187909652584e-10  0.0000000000000000e+00 -1.4838080398904019e-11 1.3669819505468618e-10  0.0000000000000000e+00 -1.8454604136256393e-11 1.5537554420346334e-10  0.0000000000000000e+00 -8.6429471747479406e-12 7.0559020241886549e-11  0.0000000000000000e+00 -1.5795124967372859e-11 1.4588262430433056e-10  0.0000000000000000e+00 -1.2358505632349011e-11 1.1902273108366596e-10  0.0000000000000000e+00 -9.8953320467658203e-12 8.1663269745996298e-11  0.0000000000000000e+00 -1.5790746560046277e-11 1.4315517724037414e-10  0.0000000000000000e+00 -1.0980305352186431e-11 9.0897359118890125e-11  0.0000000000000000e+00 -1.9222036519628823e-11 1.5966012642054496e-10  0.0000000000000000e+00 -1.8945636202244611e-11 1.5738281642118933e-10  0.0000000000000000e+00 -9.9005648983898824e-12 7.6367880369838986e-11  0.0000000000000000e+00 -1.1678982757886223e-11 8.7798137431724342e-11  0.0000000000000000e+00 -1.1675430781793361e-11 8.5429315588081195e-11  0.0000000000000000e+00 -1.1868964260661848e-11 9.0288779848819520e-11  0.0000000000000000e+00 -1.1004122375911763e-11 7.8673593016980000e-11  0.0000000000000000e+00 -1.0495507321944794e-11 7.4874307019453511e-11  0.0000000000000000e+00 -1.1368661754294229e-11 1.1323056866878893e-10  0.0000000000000000e+00 -1.2183933140290041e-11 1.0146076767592264e-10  0.0000000000000000e+00 -1.8138827496269884e-11 1.5362139551228866e-10  0.0000000000000000e+00 -1.1194063067414563e-11 8.3087446635789314e-11  0.0000000000000000e+00 -1.5613100316022205e-11 1.3906670705846741e-10  0.0000000000000000e+00 -1.0236282289531872e-11 7.2484553429284872e-11  0.0000000000000000e+00 -1.5194160584601618e-11 1.3580257443610139e-10  0.0000000000000000e+00 -1.5608021555413301e-11 1.4035709341373019e-10  0.0000000000000000e+00 -1.1332418703085211e-11 9.3051220239724914e-11  0.0000000000000000e+00 -1.7146747795006175e-11 1.4984451242887034e-10  0.0000000000000000e+00 -1.2364283950304119e-11 9.2963240409004356e-11  0.0000000000000000e+00 -1.4594299276649763e-11 1.3348214411880949e-10  0.0000000000000000e+00 -1.0901540283198802e-11 9.5978172229427066e-11  0.0000000000000000e+00 -1.0916641204997175e-11 8.0856627576672367e-11  0.0000000000000000e+00 -1.2146364839341729e-11 9.5039511939584090e-11  0.0000000000000000e+00 -1.9739866421032994e-11 1.6000388542383254e-10  0.0000000000000000e+00 -1.1913046925474533e-11 9.6567644847737103e-11  0.0000000000000000e+00 -1.1578266882399771e-11 9.7881832164009094e-11  0.0000000000000000e+00 -1.2671688696353583e-11 1.2202648693267800e-10  0.0000000000000000e+00 -1.7979643818108800e-11 1.5196275033296978e-10  0.0000000000000000e+00 -1.2459590644730951e-11 1.1521108720234528e-10  0.0000000000000000e+00 -1.2434107246690919e-11 9.9899857855240686e-11  0.0000000000000000e+00 -1.6774491901102514e-11 1.4809241958800667e-10  0.0000000000000000e+00 -1.2040535971814448e-11 1.0626254199108388e-10  0.0000000000000000e+00 -1.2932691378968260e-11 1.2681864626439188e-10  0.0000000000000000e+00 -1.4223426465812247e-11 1.3119740447170897e-10  0.0000000000000000e+00 -9.7911594221768121e-12 7.0309308820807149e-11  0.0000000000000000e+00 -1.1312573385001471e-11 7.6976243029763856e-11  0.0000000000000000e+00 -1.6355040696031073e-11 1.4524208912573537e-10  0.0000000000000000e+00 -1.5873803079942073e-11 1.3813779611427544e-10  0.0000000000000000e+00 -1.6503592790525474e-11 1.4646960390168777e-10  0.0000000000000000e+00 -1.1882907639680494e-11 1.2442355551250427e-10  0.0000000000000000e+00 -1.2962763655518819e-11 1.1773371725194289e-10  0.0000000000000000e+00 -1.0883600226794669e-11 1.0880538736598835e-10  0.0000000000000000e+00 -2.0144441840874719e-11 1.6214387869493524e-10  0.0000000000000000e+00 -8.8721081492732471e-12 6.8236615559178572e-11  