<?xml version="1.0"?>
<VTKFile type="UnstructuredGrid"  version="0.1"  >
<UnstructuredGrid>
<Piece  NumberOfPoints="10186" NumberOfCells="19856">
<Points>
<DataArray  type="Float64"  NumberOfComponents="3"  format="ascii">4.63254383609858e-23 9.999999999999972e-07 3.023754611937595e-08  4.633709867519689e-23 9.999999999999972e-07 3.013251934590372e-08  4.631962282007746e-23 9.998951144266158e-07 3.018504228173001e-08  4.633147222522518e-23 9.998936697482602e-07 3.007686765015871e-08  4.631344170515283e-23 9.999999999999972e-07 3.034560238885409e-08  4.630796566557138e-23 9.998973546934168e-07 3.029228086191063e-08  4.630178283234724e-23 9.999999999999972e-07 3.045061617929963e-08  4.629570637676369e-23 9.998958912630077e-07 3.040123928851382e-08  4.628899614634556e-23 9.999999999999972e-07 3.056578840792463e-08  4.62843638218405e-23 9.998965749749843e-07 3.05040876527413e-08  4.627730765590912e-23 9.999999999999972e-07 3.067106897027275e-08  4.627179903123447e-23 9.998957376678599e-07 3.061642391819964e-08  4.626534731473833e-23 9.999999999999972e-07 3.077879814635271e-08  4.626009335820544e-23 9.998951863034553e-07 3.072130788317836e-08  4.625364864939153e-23 9.999999999999972e-07 3.088417035614584e-08  4.624760313225325e-23 9.998959823356622e-07 3.083460586927334e-08  4.624149598002669e-23 9.999999999999972e-07 3.099363187059201e-08  4.623618103230474e-23 9.998967934213799e-07 3.093829808513481e-08  4.62289051000981e-23 9.999999999999972e-07 3.110704043490139e-08  4.622374539005209e-23 9.998933150555642e-07 3.104683002694943e-08  4.621725292432384e-23 9.999999999999972e-07 3.121199390385133e-08  4.62112262394047e-23 9.998943587000166e-07 3.116063615578312e-08  4.620560074854959e-23 9.999999999999972e-07 3.131694737280127e-08  4.619962601717434e-23 9.998936968621327e-07 3.126445983092732e-08  4.619385763010376e-23 9.999999999999972e-07 3.142271998051487e-08  4.618787849200332e-23 9.998948084855472e-07 3.137138375430719e-08  4.618159099062103e-23 9.999999999999972e-07 3.153320804652192e-08  4.617651677109279e-23 9.998979947788357e-07 3.147690733171359e-08  4.616915853390935e-23 9.999999999999972e-07 3.164518966134995e-08  4.616383148763849e-23 9.998949670813474e-07 3.158813850990098e-08  4.615737064775293e-23 9.999999999999972e-07 3.175136550075309e-08  4.615176471902175e-23 9.998961342732216e-07 3.169799349106716e-08  4.614550970230213e-23 9.999999999999972e-07 3.185819939977804e-08  4.614056891262698e-23 9.998991296383468e-07 3.180183171520749e-08  4.613371164123535e-23 9.999999999999972e-07 3.196446688662618e-08  4.612820885146466e-23 9.99896893243458e-07 3.191092485400846e-08  4.61218608706949e-23 9.999999999999972e-07 3.207120913820612e-08  4.611609318837596e-23 9.998944323946736e-07 3.201759219676725e-08  4.611005263471776e-23 9.999999999999972e-07 3.217756827249928e-08  4.610441820452491e-23 9.998968877691948e-07 3.212520647713086e-08  4.609761904505872e-23 9.999999999999972e-07 3.228956009200991e-08  4.609305582873401e-23 9.998971742423502e-07 3.222783613304209e-08  4.608541865605466e-23 9.999999999999972e-07 3.239945142675479e-08  4.607986897348222e-23 9.998928787116944e-07 3.234231723518261e-08  4.607376648028042e-23 9.999999999999972e-07 3.250440489570474e-08  4.606739794153022e-23 9.998940670406979e-07 3.245583463389004e-08  4.606191363389845e-23 9.999999999999972e-07 3.26111658448029e-08  4.605560273540471e-23 9.998954934309295e-07 3.256350279594475e-08  4.604936567081649e-23 9.999999999999972e-07 3.272418784852323e-08  4.604401041741981e-23 9.99894929574267e-07 3.266735325719662e-08  4.603707867001608e-23 9.999999999999972e-07 3.283485931297571e-08  4.603099884310583e-23 9.998935328921417e-07 3.278315441753514e-08  4.602441552690113e-23 9.999999999999972e-07 3.294891876620342e-08  4.601911647487011e-23 9.998955193585822e-07 3.289216774229299e-08  4.601253422677419e-23 9.999999999999972e-07 3.305593600385214e-08  4.600674145855264e-23 9.998949639673781e-07 3.300307658884114e-08  4.600088205099993e-23 9.999999999999972e-07 3.316088947280208e-08  4.599523679187853e-23 9.998945427107831e-07 3.310628015733908e-08  4.598893966919678e-23 9.999999999999972e-07 3.326845688527933e-08  4.598353219551571e-23 9.998949148521517e-07 3.321207793034401e-08  4.59761621526589e-23 9.999999999999972e-07 3.338354652271675e-08  4.597089232533488e-23 9.998967493430461e-07 3.332776225051128e-08  4.59644398363597e-23 9.999999999999972e-07 3.348913176135076e-08  4.595862082387119e-23 9.998952696289766e-07 3.343681439527996e-08  4.595278766058545e-23 9.999999999999972e-07 3.35940852303007e-08  4.594724392346843e-23 9.998966809667545e-07 3.354069974188685e-08  4.59411354848112e-23 9.999999999999972e-07 3.369903869925064e-08  4.59355858567023e-23 9.998949809568727e-07 3.364400626229273e-08  4.5929148649909e-23 9.999999999999972e-07 3.380700650964837e-08  4.592382110928411e-23 9.99894116329777e-07 3.374910905937429e-08  4.591748665320397e-23 9.999999999999972e-07 3.391204843767873e-08  4.591214539269366e-23 9.998965429898883e-07 3.385670122525768e-08  4.5905489997371e-23 9.999999999999972e-07 3.402010470715687e-08  4.590045503661344e-23 9.998974073548646e-07 3.396286295680739e-08  4.589383782159675e-23 9.999999999999972e-07 3.412505817610682e-08  4.588782902035105e-23 9.998958683445499e-07 3.407504899076167e-08  4.588218550552167e-23 9.999999999999972e-07 3.423001290877428e-08  4.587607861927407e-23 9.998964552824003e-07 3.418147413243542e-08  4.586939226278948e-23 9.999999999999972e-07 3.434524419517735e-08  4.586435401296852e-23 9.998969238740665e-07 3.428754858927918e-08  4.585770561215276e-23 9.999999999999972e-07 3.44505081860828e-08  4.585191200133992e-23 9.99894681184113e-07 3.439737357719439e-08  4.584558374644287e-23 9.999999999999972e-07 3.455969224587104e-08  4.58399998579277e-23 9.998972693125402e-07 3.450725675488646e-08  4.583295004814924e-23 9.999999999999972e-07 3.467348648372602e-08  4.582747644157818e-23 9.998946118375595e-07 3.461740018631597e-08  4.582129787237499e-23 9.999999999999972e-07 3.477843995267597e-08  4.581511051569596e-23 9.99892516720876e-07 3.472668742802293e-08  4.580956661133346e-23 9.999999999999972e-07 3.488410575838643e-08  4.580396405275607e-23 9.998954170831295e-07 3.482998620296162e-08  4.579764904076776e-23 9.999999999999972e-07 3.499144969110405e-08  4.579151379744658e-23 9.998929996130698e-07 3.493971066324696e-08  4.578544990925855e-23 9.999999999999972e-07 3.510132969934237e-08  4.577910866426126e-23 9.998921567928083e-07 3.505060334936718e-08  4.57725115930397e-23 9.999999999999972e-07 3.521786769154638e-08  4.576775624531166e-23 9.998963521784955e-07 3.515705223455672e-08  4.576071465336655e-23 9.999999999999972e-07 3.53241250777786e-08  4.575520837182054e-23 9.998958873098895e-07 3.526960856270851e-08  4.574886276143248e-23 9.999999999999972e-07 3.543087742997448e-08  4.574320254094233e-23 9.998951707732286e-07 3.537703093698637e-08  4.573705564684896e-23 9.999999999999972e-07 3.553722646365169e-08  4.573070747197345e-23 9.998950254334598e-07 3.548943117312203e-08  4.572462493225079e-23 9.999999999999972e-07 3.564919238691632e-08  4.571874947700469e-23 9.998930225965664e-07 3.559513637959943e-08  4.57122206829666e-23 9.999999999999972e-07 3.576091993182451e-08  4.570628184927067e-23 9.998939689119554e-07 3.570838110222265e-08  4.569967478833542e-23 9.999999999999972e-07 3.587392330459651e-08  4.56947795004089e-23 9.998971131023806e-07 3.581512924074334e-08  4.568763050792625e-23 9.999999999999972e-07 3.598240853812188e-08  4.568206806055352e-23 9.998966743338849e-07 3.592918494383978e-08  4.567447931405414e-23 9.999999999999972e-07 3.61008639617657e-08  4.567019272782863e-23 9.998991393186897e-07 3.6038613416714e-08  4.56621927676349e-23 9.999999999999972e-07 3.621153133351643e-08  4.565692596619736e-23 9.998983720235017e-07 3.615734248700402e-08  4.56493893909537e-23 9.999999999999972e-07 3.632685389841741e-08  4.564488995645397e-23 9.998972659038033e-07 3.626464710529634e-08  4.56377030213322e-23 9.999999999999972e-07 3.643211535816294e-08  4.563251610338461e-23 9.998985919686415e-07 3.637742693027909e-08  4.562570636549922e-23 9.999999999999972e-07 3.65401716276411e-08  4.562076668506598e-23 9.998991224786104e-07 3.648378679217121e-08  4.561405418972497e-23 9.999999999999972e-07 3.664512509659104e-08  4.560849101180102e-23 9.99898764999867e-07 3.659399874851146e-08  4.560240174834712e-23 9.999999999999972e-07 3.675008095788545e-08  4.559701886547289e-23 9.998972161650823e-07 3.669578182158363e-08  4.5590394760298e-23 9.999999999999972e-07 3.685823029169315e-08  4.558514229744119e-23 9.998975825426547e-07 3.680312281388007e-08  4.557840870228477e-23 9.999999999999972e-07 3.696619110449727e-08  4.557247117913516e-23 9.998941423210046e-07 3.691381387959284e-08  4.556675652651052e-23 9.999999999999972e-07 3.707114457344721e-08  4.556033122971845e-23 9.998929808132508e-07 3.702199931517786e-08  4.555503088090158e-23 9.999999999999972e-07 3.717675979983741e-08  4.5549334157806e-23 9.998966333562444e-07 3.71247046761056e-08  4.554231096770325e-23 9.999999999999972e-07 3.729133059251774e-08  4.5537121709714e-23 9.998965061650033e-07 3.723457743821731e-08  4.553032145879198e-23 9.999999999999972e-07 3.739932248824807e-08  4.552369236301881e-23 9.998917816873356e-07 3.735081376209414e-08  4.551717351997518e-23 9.999999999999972e-07 3.751774859296008e-08  4.551189438904171e-23 9.998962854806441e-07 3.746158425781668e-08  4.550512734643477e-23 9.999999999999972e-07 3.762625087829583e-08  4.549942656244761e-23 9.998942539932314e-07 3.757185296881055e-08  4.549272796116792e-23 9.999999999999972e-07 3.773793461203061e-08  4.548710292383113e-23 9.998927559881533e-07 3.768135643229463e-08  4.548093079525919e-23 9.999999999999972e-07 3.78441940360118e-08  4.547509640021857e-23 9.998950439533901e-07 3.779178954806637e-08  4.546852558735597e-23 9.999999999999972e-07 3.795593021539259e-08  4.546372052271262e-23 9.998959333148558e-07 3.789514370492572e-08  4.545609583137682e-23 9.999999999999972
[...]
<PointData  Vectors="f_25"> 
<DataArray  type="Float64"  Name="f_25"  NumberOfComponents="3" format="ascii">0.0000000000000000e+00 6.5490788646750614e-10 -6.8327799355466484e-11  0.0000000000000000e+00 6.5511789863277887e-10 -6.8492249601341061e-11  0.0000000000000000e+00 6.5510435356619170e-10 -6.8621545706347631e-11  0.0000000000000000e+00 6.5532184032480663e-10 -6.8794987964005584e-11  0.0000000000000000e+00 6.5469415191310768e-10 -6.8156489894455854e-11  0.0000000000000000e+00 6.5489023731549165e-10 -6.8445815378608387e-11  0.0000000000000000e+00 6.5448866677325585e-10 -6.7987840927851566e-11  0.0000000000000000e+00 6.5467840626013427e-10 -6.8272585682232371e-11  0.0000000000000000e+00 6.5426573882763806e-10 -6.7800590223807162e-11  0.0000000000000000e+00 6.5447868192862993e-10 -6.8102953219890839e-11  0.0000000000000000e+00 6.5406426746554436e-10 -6.7627214842636325e-11  0.0000000000000000e+00 6.5426441111035015e-10 -6.7918531206755276e-11  0.0000000000000000e+00 6.5386032432844272e-10 -6.7447661757131337e-11  0.0000000000000000e+00 6.5406637958416721e-10 -6.7743740310260291e-11  0.0000000000000000e+00 6.5366308805222758e-10 -6.7269919862573580e-11  0.0000000000000000e+00 6.5385357190541225e-10 -6.7549962137774175e-11  0.0000000000000000e+00 6.5346041373489480e-10 -6.7083139076888259e-11  0.0000000000000000e+00 6.5366085263358410e-10 -6.7370428369678619e-11  0.0000000000000000e+00 6.5325272841167731e-10 -6.6887225702329857e-11  0.0000000000000000e+00 6.5346550503201525e-10 -6.7188478096864507e-11  0.0000000000000000e+00 6.5306278937599980e-10 -6.6703811327405437e-11  0.0000000000000000e+00 6.5325850784982636e-10 -6.6986541751773929e-11  0.0000000000000000e+00 6.5287483827561441e-10 -6.6518339135034557e-11  0.0000000000000000e+00 6.5307339799296179e-10 -6.6803263229223969e-11  0.0000000000000000e+00 6.5268745329358966e-10 -6.6329365433540578e-11  0.0000000000000000e+00 6.5288301888965730e-10 -6.6609197269541880e-11  0.0000000000000000e+00 6.5249393822369070e-10 -6.6129863409912778e-11  0.0000000000000000e+00 6.5269500694594033e-10 -6.6411923304975416e-11  0.0000000000000000e+00 6.5230003485583324e-10 -6.5925342416147727e-11  0.0000000000000000e+00 6.5250551413025229e-10 -6.6213185174161967e-11  0.0000000000000000e+00 6.5211830858151164e-10 -6.5729326225404120e-11  0.0000000000000000e+00 6.5231634581579574e-10 -6.6007371270528516e-11  0.0000000000000000e+00 6.5193749963041514e-10 -6.5530090002262887e-11  0.0000000000000000e+00 6.5213752662939900e-10 -6.5807630445110597e-11  0.0000000000000000e+00 6.5175970069396818e-10 -6.5329806341201094e-11  0.0000000000000000e+00 6.5195737433120398e-10 -6.5604922898045120e-11  0.0000000000000000e+00 6.5158301254287904e-10 -6.5126530649314937e-11  0.0000000000000000e+00 6.5178359325055683e-10 -6.5405107060937785e-11  0.0000000000000000e+00 6.5140896315062088e-10 -6.4921981771679204e-11  0.0000000000000000e+00 6.5160496077868371e-10 -6.5193125727768713e-11  0.0000000000000000e+00 6.5122772197385168e-10 -6.4704438858590428e-11  0.0000000000000000e+00 6.5143863051574719e-10 -6.4992515015655528e-11  0.0000000000000000e+00 6.5105188962699033e-10 -6.4488732709029669e-11  0.0000000000000000e+00 6.5126025258369622e-10 -6.4774017197362656e-11  0.0000000000000000e+00 6.5088590613182138e-10 -6.4280752578035949e-11  0.0000000000000000e+00 6.5107955699657502e-10 -6.4546158427538579e-11  0.0000000000000000e+00 6.5071901240492200e-10 -6.4067257343128287e-11  0.0000000000000000e+00 6.5090981106467571e-10 -6.4327538362175887e-11  0.0000000000000000e+00 6.5054435282502233e-10 -6.3839113193756700e-11  0.0000000000000000e+00 6.5075010944494932e-10 -6.4117894128600742e-11  0.0000000000000000e+00 6.5037544686400659e-10 -6.3613506547708888e-11  0.0000000000000000e+00 6.5057508783450887e-10 -6.3883077704562282e-11  0.0000000000000000e+00 6.5020349577840368e-10 -6.3378815351343840e-11  0.0000000000000000e+00 6.5040858556801990e-10 -6.3654803207331213e-11  0.0000000000000000e+00 6.5004415467027460e-10 -6.3156534849285665e-11  0.0000000000000000e+00 6.5024418424206304e-10 -6.3424402167406332e-11  0.0000000000000000e+00 6.4988966903766707e-10 -6.2936610047109163e-11  0.0000000000000000e+00 6.5009291862079881e-10 -6.3207978719592206e-11  0.0000000000000000e+00 6.4973314824559713e-10 -6.2709211811028618e-11  0.0000000000000000e+00 6.4993870609340585e-10 -6.2983012851076535e-11  0.0000000000000000e+00 6.4956778857771633e-10 -6.2463706942680530e-11  0.0000000000000000e+00 6.4977039266663994e-10 -6.2732715418775226e-11  0.0000000000000000e+00 6.4941788512927107e-10 -6.2236434452149453e-11  0.0000000000000000e+00 6.4961751342820150e-10 -6.2499360221543715e-11  0.0000000000000000e+00 6.4927060952578583e-10 -6.2008676419237984e-11  0.0000000000000000e+00 6.4947017084034226e-10 -6.2271128172779690e-11  0.0000000000000000e+00 6.4912502253559132e-10 -6.1779016558189122e-11  0.0000000000000000e+00 6.4932910201927298e-10 -6.2046779475462915e-11  0.0000000000000000e+00 6.4897695217795779e-10 -6.1540809241624081e-11  0.0000000000000000e+00 6.4918619034585351e-10 -6.1815456179489262e-11  0.0000000000000000e+00 6.4883461725211596e-10 -6.1307189961899052e-11  0.0000000000000000e+00 6.4903752400212612e-10 -6.1572110998945821e-11  0.0000000000000000e+00 6.4868991581565891e-10 -6.1064942190968296e-11  0.0000000000000000e+00 6.4889440976502727e-10 -6.1332254134113280e-11  0.0000000000000000e+00 6.4855103050992514e-10 -6.0827747503346883e-11  0.0000000000000000e+00 6.4874806399384141e-10 -6.1080088547530722e-11  0.0000000000000000e+00 6.4841376804460860e-10 -6.0588724428013151e-11  0.0000000000000000e+00 6.4860837670739777e-10 -6.0836181661180423e-11  0.0000000000000000e+00 6.4826490151215254e-10 -6.0324272122278506e-11  0.0000000000000000e+00 6.4847087905918393e-10 -6.0591419330402658e-11  0.0000000000000000e+00 6.4813056365944685e-10 -6.0080734136509356e-11  0.0000000000000000e+00 6.4833382675382385e-10 -6.0339627208241459e-11  0.0000000000000000e+00 6.4799296430992677e-10 -5.9826256243148641e-11  0.0000000000000000e+00 6.4819214717042758e-10 -6.0079449203889177e-11  0.0000000000000000e+00 6.4785132917336731e-10 -5.9558954792183159e-11  0.0000000000000000e+00 6.4805870360550806e-10 -5.9823449216730717e-11  0.0000000000000000e+00 6.4772227546397989e-10 -5.9310520482701663e-11  0.0000000000000000e+00 6.4792734544559404e-10 -5.9566760960239734e-11  0.0000000000000000e+00 6.4759392694384988e-10 -5.9058672898374054e-11  0.0000000000000000e+00 6.4779822023475748e-10 -5.9316243252082714e-11  0.0000000000000000e+00 6.4746513658817859e-10 -5.8800969979103141e-11  0.0000000000000000e+00 6.4766999838163302e-10 -5.9055111535668907e-11  0.0000000000000000e+00 6.4733492081615303e-10 -5.8535231100640744e-11  0.0000000000000000e+00 6.4754002002833549e-10 -5.8787293168912006e-11  0.0000000000000000e+00 6.4719858693308366e-10 -5.8251378352085395e-11  0.0000000000000000e+00 6.4740999501557542e-10 -5.8522352913807809e-11  0.0000000000000000e+00 6.4707592499343410e-10 -5.7990679552690022e-11  0.0000000000000000e+00 6.4728081072663242e-10 -5.8246135015776264e-11  0.0000000000000000e+00 6.4695419720032131e-10 -5.7726957883478259e-11  0.0000000000000000e+00 6.4715953422485790e-10 -5.7980994748930853e-11  0.0000000000000000e+00 6.4683448921564188e-10 -5.7462466239825156e-11  0.0000000000000000e+00 6.4703341359297695e-10 -5.7700935605391074e-11  0.0000000000000000e+00 6.4670999072056695e-10 -5.7182099205397089e-11  0.0000000000000000e+00 6.4691894860134972e-10 -5.7437934610296144e-11  0.0000000000000000e+00 6.4658738874658903e-10 -5.6900363948812857e-11  0.0000000000000000e+00 6.4679363601553321e-10 -5.7150725233692646e-11  0.0000000000000000e+00 6.4646499453604637e-10 -5.6613502261914686e-11  0.0000000000000000e+00 6.4667377642929951e-10 -5.6875693513322358e-11  0.0000000000000000e+00 6.4634903457141507e-10 -5.6336245692525050e-11  0.0000000000000000e+00 6.4655265720407521e-10 -5.6584152969279895e-11  0.0000000000000000e+00 6.4622411303590182e-10 -5.6031502539043905e-11  0.0000000000000000e+00 6.4643387329869411e-10 -5.6299485261669244e-11  0.0000000000000000e+00 6.4610902386531112e-10 -5.5744845572013512e-11  0.0000000000000000e+00 6.4631161779920946e-10 -5.5992293233325159e-11  0.0000000000000000e+00 6.4599063941899404e-10 -5.5444172153722769e-11  0.0000000000000000e+00 6.4620324382192460e-10 -5.5713288466897229e-11  0.0000000000000000e+00 6.4588402876428130e-10 -5.5167988603678741e-11  0.0000000000000000e+00 6.4608723372810225e-10 -5.5415572769797999e-11  0.0000000000000000e+00 6.4577597289330599e-10 -5.4882761597927072e-11  0.0000000000000000e+00 6.4598027395665679e-10 -5.5133837157993067e-11  0.0000000000000000e+00 6.4567241046552173e-10 -5.4604057261296888e-11  0.0000000000000000e+00 6.4587221546621647e-10 -5.4841045837523107e-11  0.0000000000000000e+00 6.4557009874585316e-10 -5.4323716250112436e-11  0.0000000000000000e+00 6.4577554379792596e-10 -5.4570293336171526e-11  0.0000000000000000e+00 6.4546605115456828e-10 -5.4033191040024989e-11  0.0000000000000000e+00 6.4567190139818514e-10 -5.4281110398930889e-11  0.0000000000000000e+00 6.4536355459904265e-10 -5.3741445814782068e-11  0.0000000000000000e+00 6.4557219863275363e-10 -5.3984871988410707e-11  0.0000000000000000e+00 6.4526515353875527e-10 -5.3456162651405330e-11  0.0000000000000000e+00 6.4547287899387774e-10 -5.3691476999761808e-11  0.0000000000000000e+00 6.4516738360351728e-10 -5.3167531653285830e-11  0.0000000000000000e+00 6.4537253096569947e-10 -5.3406819176275942e-11  0.0000000000000000e+00 6.4506276166072714e-10 -5.2852652084968306e-11  0.0000000000000000e+00 6.4527257930685367e-10 -5.3104486889624950e-11  0.0000000000000000e+00 6.4496543331436342e-10 -5.2554082426765781e-11  0.0000000000000000e+00 6.4517540963552930e-10 -5.2787060180061472e-11  0.0000000000000000e+00 6.4486022711843690e-10 -5.2224881393286662e-11  0.0000000000000000e+00 6.4507027400553370e-10 -5.2474491190736949e-11  0.0000000000000000e+00 6.4476519297836690e-10 -5.1921556297993606e-11  0.0000000000000000e+00 6.4497704163424763e-10 -5.2167595977578320e-11  0.0000000000000000e+00 6.4466868248594546e-10 -5.1607619969729422e-11  0.0000000000000000e+00 6.4488501675950018e-10 -5.1860723364008641e-11  0.0000000000000000e+00 6.4457815150246025e-10 -5.1307340518605826e-11  0.0000000000000000e+00 6.4478756836045496e-10 -5.1546198605065262e-11  0.0000000000000000e+00 6.4448420987734852e-10 -5.0989943561126605e-11  0.0000000000000000e+00 6.4469947856416337e-10 -5.1251461791410435e-11  0.0000000000000000e+00 6.4439144793010649e-10 -5.0670207830162057e-11  0.0000000000000000e+00 6.4460282884927660e-10 -5.0917584367707171e-11  0.0000000000000000e+00 6.4429938045455422e-10 -5.0346441557831812e-11  0.0000000000000000e+00 6.4450744751556282e-10 -5.0589482505221447e-11  0.0000000000000000e+00 6.4421175652833235e-10 -5.0032425048983598e-11  0.0000000000000000e+00 6.4442259294561145e-10 -5.0274992922495973e-11  0.0000000000000000e+00 6.4412841265794956e-10 -4.9728055540977621e-11  0.0000000000000000e+00 6.4433538680372356e-10 -4.9967098558449673e-11  0.0000000000000000e+00 6.4404619375596686e-10 -4.9422193992452464e-11  0.0000000000000000e+00 6.4425373055993778e-10 -4.9651678864343469e-11  0.0000000000000000e+00 6.4396340085922276e-10 -4.9108689599506159e-11  0.0000000000000000e+00 6.4417641093587326e-10 -4.9353772590099362e-11  0.0000000000000000e+00 6.4388262995610627e-10 -4.8796990750871000e-11  0.0000000000000000e+00 6.4409141981288214e-10 -4.9030821727945641e-11  0.0000000000000000e+00 6.4380205822083983e-10 -4.8480230421306422e-11  0.0000000000000000e+00 6.4401065212022080e-10 -4.8709147378285738e-11  0.0000000000000000e+00 6.4371751532697014e-10 -4.8141516495095079e-11  0.0000000000000000e+00 6.4393280466048987e-10 -4.8389684656250543e-11  0.0000000000000000e+00 6.4363929350316366e-10 -4.7821996094383697e-11  0.0000000000000000e+00 6.4385391909133237e-10 -4.8057441515679938e-11  0.0000000000000000e+00 6.4356177134210305e-10 -4.7499502661021987e-11  0.0000000000000000e+00 6.4377730453405610e-10 -4.7743599654434519e-11  0.0000000000000000e+00 6.4348005747519971e-10 -4.7152897527999497e-11  0.0000000000000000e+00 6.4369905465569898e-10 -4.7409885061417572e-11  0.0000000000000000e+00 6.4340609167510258e-10 -4.6833264069394856e-11  0.0000000000000000e+00 6.4362642890219763e-10 -4.7067338274763867e-11  0.0000000000000000e+00 6.4333362809183332e-10 -4.6514268247968951e-11  0.0000000000000000e+00 6.4354749796490237e-10 -4.6737073499339825e-11  0.0000000000000000e+00 6.4325518341849588e-10 -4.6162524478959671e-11  0.0000000000000000e+00 6.4347592147158942e-10 -4.6419586367922505e-11  0.0000000000000000e+00 6.4318472249628393e-10 -4.5840356892137871e-11  0.0000000000000000e+00 6.4340276333557269e-10 -4.6079132133460681e-11  0.0000000000000000e+00 6.4311331697557257e-10 -4.5508024989953540e-11  0.0000000000000000e+00 6.4333554126148451e-10 -4.5757872041135315e-11  0.0000000000000000e+00 6.4304489911264623e-10 -4.5183533813398191e-11  0.0000000000000000e+00 6.4325761339373916e-10 -4.5413364935933413e-11  0.0000000000000000e+00 6.4297729477981458e-10 -4.4857077903479953e-11  0.0000000000000000e+00 6.4319083476247294e-10 -4.5090992390492529e-11  0.0000000000000000e+00 6.4290825708813080e-10 -4.4517550732136183e-11  0.0000000000000000e+00 6.4312314765427576e-10 -4.4754264413206262e-11  0.0000000000000000e+00 6.4283699598824848e-10 -4.4160281321133227e-11  0.0000000000000000e+00 6.4305437639073888e-10 -4.4401200406702953e-11  0.0000000000000000e+00 6.4277244901597798e-10 -4.3830437288566531e-11  0.0000000000000000e+00 6.4298822024824207e-10 -4.4058839915579372e-11  0.0000000000000000e+00 6.4270843654685815e-10 -4.3497392715540232e-11  0.0000000000000000e+00 6.4292621786639079e-10 -4.3730543003058620e-11  0.0000000000000000e+00 6.4264162995654933e-10 -4.3143382841602836e-11  0.0000000000000000e+00 6.4286494287237617e-10 -4.3393470119633831e-11  0.0000000000000000e+00 6.4257272958421389e-10 -4.2770912881336167e-11  0.0000000000000000e+00 6.4279652535690168e-10 -4.3028571052933596e-11  0.0000000000000000e+00 6.4251195335154651e-10 -4.2435853409577706e-11  0.0000000000000000e+00 6.4273079559278341e-10 -4.2664770366016110e-11  0.0000000000000000e+00 6.4245137925596721e-10 -4.2095707176416963e-11  0.0000000000000000e+00 6.4267142474413448e-10 -4.2324764484678195e-11  0.0000000000000000e+00 6.4239055277301574e-10 -4.1747891725346726e-11  0.0000000000000000e+00 6.4261304387784816e-10 -4.1979145396845648e-11  0.0000000000000000e+00 6.4232868730195568e-10 -4.1387289270846770e-11  0.0000000000000000e+00 6.4254608941196617e-10 -4.1625214635617227e-11  0.0000000000000000e+00 6.4226863160064401e-10 -4.1030024501161398e-11  0.0000000000000000e+00 6.4248215790991647e-10 -4.1247682263264401e-11  0.0000000000000000e+00 6.4221139079740768e-10 -4.0683227622794207e-11  0.0000000000000000e+00 6.4243267782556620e-10 -4.0913073309103489e-11  0.0000000000000000e+00 6.4215516443723724e-10 -4.0336190841014579e-11  0.0000000000000000e+00 6.4237679439115071e-10 -4.0557081557607752e-11  0.0000000000000000e+00 6.4209484426821417e-10 -3.9956528625672658e-11  0.0000000000000000e+00 6.4231758350741184e-10 -4.0198249531765282e-11  0.0000000000000000e+00 6.4203828903592898e-10 -3.9593463977305245e-11  0.0000000000000000e+00 6.4226340943078828e-10 -3.9824286128824052e-11  0.0000000000000000e+00 6.4198425933634921e-10 -3.9239797357157419e-11  0.0000000000000000e+00 6.4220675826816322e-10 -3.9462067993997735e-11  0.0000000000000000e+00 6.4192757202524637e-10 -3.8861687687584675e-11  0.0000000000000000e+00 6.4215516350161139e-10 -3.9109448910657081e-11  0.0000000000000000e+00 6.4187551365052539e-10 -3.8507323018613545e-11  0.0000000000000000e+00 6.4209643258660857e-10 -3.8731915725847161e-11  0.0000000000000000e+00 6.4181723824183926e-10 -3.8102656133316019e-11  0.0000000000000000e+00 6.4204411049175887e-10 -3.8364346059143251e-11  0.0000000000000000e+00 6.4176769781964273e-10 -3.7751785029233528e-11  0.0000000000000000e+00 6.4198933924674186e-10 -3.7988426529610748e-11  0.0000000000000000e+00 6.4171735506469983e-10 -3.7388311906328240e-11  0.0000000000000000e+00 6.4193329624656291e-10 -3.7620157732803152e-11  0.0000000000000000e+00 6.4166469751792368e-10 -3.7000401539266810e-11  0.0000000000000000e+00 6.4188053051826520e-10 -3.7244392626905821e-11  0.0000000000000000e+00 6.4161631869092252e-10 -3.6637063133687315e-11  0.0000000000000000e+00 6.4183550119524211e-10 -3.6875986008204807e-11  0.0000000000000000e+00 6.4156989944614856e-10 -3.6281776893276499e-11  0.0000000000000000e+00 6.4178816767441793e-10 -3.6512462868988005e-11  0.0000000000000000e+00 6.4152401752457495e-10 -3.5923769118631305e-11  0.0000000000000000e+00 6.4174266190105332e-10 -3.6149722342222301e-11  0.0000000000000000e+00 6.4147769880213197e-10 -3.5555521319060051e-11  0.0000000000000000e+00 6.4169948323512925e-10 -3.5794629915851263e-11  0.0000000000000000e+00 6.4143245527508719e-10 -3.5188511087535422e-11  0.0000000000000000e+00 6.4165592001214855e-10 -3.5404114784761393e-11  0.0000000000000000e+00 6.4138899220492173e-10 -3.4829076114792171e-11  0.0000000000000000e+00 6.4161122760136391e-10 -3.5042775287201750e-11  0.0000000000000000e+00 6.4134524343151830e-10 -3.4460354497692306e-11  0.0000000000000000e+00 6.4156705123668256e-10 -3.4690010647534249e-11  0.0000000000000000e+00 6.4130011266223481e-10 -3.4071854503245300e-11  0.0000000000000000e+00 6.4152120570232614e-10 -3.4300537446993676e-11  0.0000000000000000e+00 6.4125848271175268e-10 -3.3705954949470041e-11  0.0000000000000000e+00 6.4148042462804973e-10 -3.3918017107741254e-11  0.0000000000000000e+00 6.4121558965135194e-10 -3.3321788375095129e-11  0.0000000000000000e+00 6.4144182052905040e-10 -3.3553297503176047e-11  0.0000000000000000e+00 6.4117274435974742e-10 -3.2930121722908087e-11  0.0000000000000000e+00 6.4139628888370425e-10 -3.3158588009586310e-11  0.0000000000000000e+00 6.4113095557453303e-10 -3.2540216406172610e-11  0.0000000000000000e+00 6.4135132915124455e-10 -3.2784952408337003e-11  0.0000000000000000e+00 6.4108999489912872e-10 -3.2150055633057601e-11  0.0000000000000000e+00 6.4131571889081198e-10 -3.2389937793103705e-11  0.0000000000000000e+00 6.4105169421858117e-10 -3.1778023932658673e-11  0.0000000000000000e+00 6.4127972553967310e-10 -3.2001163920712334e-11  0.0000000000000000e+00 6.4101383704519565e-10 -3.1403029029569891e-11  0.0000000000000000e+00 6.4123498327508517e-10 -3.1631424042112081e-11  0.0000000000000000e+00 6.4097445019359654e-10 -3.1004602529717039e-11  0.0000000000000000e+00 6.4119460973450645e-10 -3.1237134380632245e-11  0.0000000000000000e+00 6.4093749360893592e-10 -3.0623039748594328e-11  0.0000000000000000e+00 6.4115791512438656e-10 -3.0852375162576013e-11  0.0000000000000000e+00 6.4089956332413265e-10 -3.0223012022236728e-11  0.0000000000000000e+00 6.4111785572081027e-10 -3.0468293408069253e-11  0.0000000000000000e+00 6.4086431263265695e-10 -2.9843499879089415e-11  0.0000000000000000e+00 6.4108790954080702e-10 -3.0072971787904289e-11  0.0000000000000000e+00 6.4083041049539786e-10 -2.9470602432242332e-11  0.0000000000000000e+00 6.4105097063853499e-10 -2.9674978753975410e-11  0.0000000000000000e+00 6.4079627650204197e-10 -2.9087586242070599e-11  0.0000000000000000e+00 6.4102387775729244e-10 -2.9296773449440815e-11  0.0000000000000000e+00 6.4075834037290803e-10 -2.8652242813712204e-11  0.0000000000000000e+00 6.4098648347894775e-10 -2.8902413212211947e-11  0.0000000000000000e+00 6.4072633059315437e-10 -2.8276729687636691e-11  0.0000000000000000e+00 6.4095334891667689e-10 -2.8495707471270310e-11  0.0000000000000000e+00 6.4069399984507902e-10 -2.7889278821431840e-11  0.0000000000000000e+00 6.4091756240980737e-10 -2.8120240177026298e-11  0.0000000000000000e+00 6.4066315823109034e-10 -2.7511796894353032e-11  0.0000000000000000e+00 6.4088841980415541e-10 -2.7724649524378019e-11  0.0000000000000000e+00 6.4063184615667357e-10 -2.7120640064179542e-11  0.0000000000000000e+00 6.4085794977096668e-10 -2.7352384524036241e-11  0.0000000000