<?xml version="1.0"?>
<VTKFile type="UnstructuredGrid"  version="0.1"  >
<UnstructuredGrid>
<Piece  NumberOfPoints="10268" NumberOfCells="20038">
<Points>
<DataArray  type="Float64"  NumberOfComponents="3"  format="ascii">4.399996584658672e-23 9.999999999999972e-07 5.118354041799195e-08  4.40123523688283e-23 9.999999999999972e-07 5.107197254408878e-08  4.399501869654966e-23 9.998977161647241e-07 5.112581654884574e-08  4.400667976925973e-23 9.998952087812739e-07 5.101827555997193e-08  4.398770003190948e-23 9.999999999999972e-07 5.129402105481163e-08  4.398294676907132e-23 9.998990622437235e-07 5.123589688403138e-08  4.397586538647746e-23 9.999999999999972e-07 5.140061806432701e-08  4.397097074302434e-23 9.998983116075069e-07 5.134301670069986e-08  4.396405120030225e-23 9.999999999999972e-07 5.150703079323971e-08  4.395820454886629e-23 9.998965810266137e-07 5.145627377431298e-08  4.395220637995988e-23 9.999999999999972e-07 5.16137194502001e-08  4.394622315168714e-23 9.998960631645236e-07 5.156367474396566e-08  4.394040236869503e-23 9.999999999999972e-07 5.172004053166779e-08  4.3934829345483e-23 9.99895126730902e-07 5.166536459309472e-08  4.392802737910274e-23 9.999999999999972e-07 5.18315045287009e-08  4.392284138828567e-23 9.998949804206509e-07 5.177319620197722e-08  4.391595680988776e-23 9.999999999999972e-07 5.194022655073833e-08  4.391018184227892e-23 9.998945955130643e-07 5.188683834774797e-08  4.390406737914057e-23 9.999999999999972e-07 5.204731702250371e-08  4.389854913511445e-23 9.998956349450099e-07 5.199265589099601e-08  4.389206039109145e-23 9.999999999999972e-07 5.215546635631141e-08  4.388593318456127e-23 9.998950869580444e-07 5.210574228445084e-08  4.388005340304234e-23 9.999999999999972e-07 5.22636156901191e-08  4.387383493227716e-23 9.998951321773648e-07 5.221475887272843e-08  4.38683146666146e-23 9.999999999999972e-07 5.236934882812269e-08  4.386231215590716e-23 9.998952402649503e-07 5.231865490304631e-08  4.385639439652475e-23 9.999999999999972e-07 5.247671707599219e-08  4.385060041679764e-23 9.99894981627538e-07 5.242388623341298e-08  4.384295973277542e-23 9.999999999999972e-07 5.259772576930288e-08  4.383841291296222e-23 9.99895420570884e-07 5.253410045222258e-08  4.383118056305356e-23 9.999999999999972e-07 5.270382309804318e-08  4.382566575063462e-23 9.998937309115886e-07 5.264722702394441e-08  4.38195283872793e-23 9.999999999999972e-07 5.280877656699312e-08  4.381445488507661e-23 9.998966177747839e-07 5.275109238703879e-08  4.380754243855785e-23 9.999999999999972e-07 5.291673639538436e-08  4.380261601075234e-23 9.998989794814738e-07 5.28600891937193e-08  4.379553545050873e-23 9.999999999999972e-07 5.302488572919205e-08  4.379011213041468e-23 9.998964489012041e-07 5.297018355510829e-08  4.37838828998391e-23 9.999999999999972e-07 5.312984257489936e-08  4.377815965922585e-23 9.99896748561136e-07 5.307814150462461e-08  4.377223072406485e-23 9.999999999999972e-07 5.32347960438493e-08  4.376610164467137e-23 9.998957691977756e-07 5.318577108097287e-08  4.376023406823188e-23 9.999999999999972e-07 5.334285231332744e-08  4.375483617415713e-23 9.99897577167686e-07 5.32890493885035e-08  4.374857240705421e-23 9.999999999999972e-07 5.344789121919595e-08  4.374317027073759e-23 9.998968777195138e-07 5.339342705691758e-08  4.373658523662465e-23 9.999999999999972e-07 5.355586205175553e-08  4.373135129083259e-23 9.998971318222213e-07 5.350013706661717e-08  4.372491340053663e-23 9.999999999999972e-07 5.366099260506903e-08  4.371915440417266e-23 9.998973283315533e-07 5.361019336438274e-08  4.371282951678745e-23 9.999999999999972e-07 5.376983455376905e-08  4.370756040841007e-23 9.998979087345916e-07 5.371520319741329e-08  4.370007843665426e-23 9.999999999999972e-07 5.388468607324185e-08  4.369505413537689e-23 9.998954320970322e-07 5.382537305299794e-08  4.368814636615144e-23 9.999999999999972e-07 5.399216060978234e-08  4.368253500736285e-23 9.998970671602864e-07 5.39397703967702e-08  4.367641943013667e-23 9.999999999999972e-07 5.409778745911495e-08  4.367044179136349e-23 9.998961212803427e-07 5.404775052296332e-08  4.366419427963032e-23 9.999999999999972e-07 5.420790182564484e-08  4.365854311404894e-23 9.998969670153525e-07 5.415577001541322e-08  4.36517041515112e-23 9.999999999999972e-07 5.432040289833102e-08  4.364599047932945e-23 9.998951629160528e-07 5.426702999820391e-08  4.363962599862986e-23 9.999999999999972e-07 5.442919322796256e-08  4.363383292810976e-23 9.998929640708516e-07 5.437433663928821e-08  4.362725859270394e-23 9.999999999999972e-07 5.454058891740155e-08  4.362155905210076e-23 9.998928903082283e-07 5.448481612350589e-08  4.361545245348412e-23 9.999999999999972e-07 5.46469291657837e-08  4.3609497423983e-23 9.998956906052594e-07 5.459625790833029e-08  4.360302423955106e-23 9.999999999999972e-07 5.475887256505931e-08  4.359749515058286e-23 9.998970602634026e-07 5.470573443449844e-08  4.358959765782629e-23 9.999999999999972e-07 5.487980846196438e-08  4.358457494344072e-23 9.998960758896446e-07 5.482112494088228e-08  4.357733110610988e-23 9.999999999999972e-07 5.49902957374426e-08  4.357256139021757e-23 9.998944902980081e-07 5.4927747816884e-08  4.356542453815241e-23 9.999999999999972e-07 5.509754056747561e-08  4.356038849447614e-23 9.998944066063532e-07 5.50373078226794e-08  4.355368227450266e-23 9.999999999999972e-07 5.520330547587069e-08  4.354786075757863e-23 9.998950888610669e-07 5.515082989983996e-08  4.354176553163483e-23 9.999999999999972e-07 5.53106419533487e-08  4.353622462293866e-23 9.998966060695396e-07 5.525715609156995e-08  4.352905374892759e-23 9.999999999999972e-07 5.542513951307582e-08  4.352435067290067e-23 9.998982439968119e-07 5.536574505277524e-08  4.351724005986242e-23 9.999999999999972e-07 5.553154776441936e-08  4.351116820230134e-23 9.998945390308095e-07 5.548077722613069e-08  4.350558788408817e-23 9.999999999999972e-07 5.563650123336932e-08  4.34996168712561e-23 9.998964219390762e-07 5.558670527477934e-08  4.349362653081553e-23 9.999999999999972e-07 5.574423952565232e-08  4.348816325393976e-23 9.9989779958144e-07 5.569124793049887e-08  4.348161954276641e-23 9.999999999999972e-07 5.585238885946e-08  4.347599120610076e-23 9.998959682632131e-07 5.57990526724962e-08  4.346994239664797e-23 9.999999999999972e-07 5.595756724127555e-08  4.346378333266684e-23 9.998947787464102e-07 5.590782190418918e-08  4.345796053624883e-23 9.999999999999972e-07 5.60654902453331e-08  4.345251252071651e-23 9.99896740591896e-07 5.601130219867443e-08  4.344503104631498e-23 9.999999999999972e-07 5.618194873742943e-08  4.343954744736803e-23 9.99895693653172e-07 5.612703425895249e-08  4.343166708582817e-23 9.999999999999972e-07 5.630232059236667e-08  4.342664856608964e-23 9.998957984965557e-07 5.624332189617392e-08  4.341993960896625e-23 9.999999999999972e-07 5.640795231321734e-08  4.341394326376485e-23 9.998942787020403e-07 5.635624129128964e-08  4.340771307182061e-23 9.999999999999972e-07 5.65180791694836e-08  4.340251463014519e-23 9.998975480485216e-07 5.646245061799267e-08  4.339522487118792e-23 9.999999999999972e-07 5.663056288091537e-08  4.33897198419211e-23 9.998965219850037e-07 5.65766697614313e-08  4.338314479082013e-23 9.999999999999972e-07 5.673937057180133e-08  4.337795023544442e-23 9.998950830720321e-07 5.668124203914509e-08  4.337077931238066e-23 9.999999999999972e-07 5.685074889998589e-08  4.336553360915576e-23 9.998926608458391e-07 5.679065884000568e-08  4.335897263231368e-23 9.999999999999972e-07 5.695709401988611e-08  4.335310295059921e-23 9.998952792399465e-07 5.690524265259958e-08  4.334713048077343e-23 9.999999999999972e-07 5.7063758638414e-08  4.334115939607527e-23 9.998965845033191e-07 5.701412589137921e-08  4.333446920735971e-23 9.999999999999972e-07 5.717780125087013e-08  4.332907204114578e-23 9.998979285534461e-07 5.712434315581886e-08  4.332199303304536e-23 9.999999999999972e-07 5.729017663885633e-08  4.331703629902139e-23 9.998989156993974e-07 5.723373862926321e-08  4.331034085727111e-23 9.999999999999972e-07 5.739513010780628e-08  4.330505122611391e-23 9.998974254761352e-07 5.734020034576143e-08  4.329790454794813e-23 9.999999999999972e-07 5.750714642387195e-08  4.329310740398688e-23 9.998993381141736e-07 5.744969336956108e-08  4.328564068004505e-23 9.999999999999972e-07 5.761760952570885e-08  4.328010870321477e-23 9.99896285485558e-07 5.756372262885252e-08  4.327389864263087e-23 9.999999999999972e-07 5.772337239635496e-08  4.326793724027283e-23 9.998953512576417e-07 5.767241919287607e-08  4.326198167352746e-23 9.999999999999972e-07 5.783071091158194e-08  4.325620524494303e-23 9.998946296810372e-07 5.777737003586267e-08  4.325024981102365e-23 9.999999999999972e-07 5.793638213478305e-08  4.324413563401428e-23 9.998937761121184e-07 5.788522985750644e-08  4.323832266700988e-23 9.999999999999972e-07 5.804381229745503e-08  4.323253426838707e-23 9.998931565283382e-07 5.798910608555757e-08  4.322558421754925e-23 9.999999999999972e-07 5.815855004994341e-08  4.322033264701949e-23 9.998934492143938e-07 5.809930120650188e-08  4.321348770312751e-23 9.999999999999972e-07 5.826750576562786e-08  4.320817667490978e-23 9.998942866203929e-07 5.82096298754283e-08  4.320181094055043e-23 9.999999999999972e-07 5.837268069280989e-08  4.319599217566443e-23 9.998943431665255e-07 5.831943463408287e-08  4.319015876477618e-23 9.999999999999972e-07 5.847763416175984e-08  4.318457316798612e-23 9.998981261551997e-07 5.842607090020703e-08  4.317736538174317e-23 9.999999999999972e-07 5.859286671188042e-08  4.317253805882517e-23 9.998963968070843e-07 5.853274417835687e-08  4.316571320596892e-23 9.999999999999972e-07 5.869782018083037e-08  4.315913243341051e-23 9.998917566278499e-07 5.864885113836682e-08  4.315405165342038e-23 9.999999999999972e-07 5.880285810825462e-08  4.314741289611107e-23 9.998931742293913e-07 5.875582894753753e-08  4.31419436044324e-23 9.999999999999972e-07 5.891191771807558e-08  4.313567355880596e-23 9.998915115449229e-07 5.885990481329497e-08  4.312857910240788e-23 9.999999999999972e-
[...]
<PointData  Tensors="f_45"> 
<DataArray  type="Float64"  Name="f_45"  NumberOfComponents="9" format="ascii">0.0000000000000000e+00 -1.1619413289841306e-19 -2.1126453899651213e-19 -1.1619413289841306e-19 -2.1365567977698063e-03 3.8728199724450739e-07 -2.1126453899651213e-19 3.8728199724450739e-07 3.8499675436746176e-03  0.0000000000000000e+00 -1.1593016065295661e-19 -2.1095898111292866e-19 -1.1593016065295661e-19 -2.1356878530262549e-03 4.0309954024701299e-07 -2.1095898111292866e-19 4.0309954024701299e-07 3.8483810937585319e-03  0.0000000000000000e+00 -1.1620224972004159e-19 -2.1124705567073598e-19 -1.1620224972004159e-19 -2.1379057545651953e-03 1.3521739222369587e-06 -2.1124705567073598e-19 1.3521739222369587e-06 3.8527851130606455e-03  0.0000000000000000e+00 -1.1595916342134672e-19 -2.1096107999101068e-19 -1.1595916342134672e-19 -2.1371974810577257e-03 1.4791221287590690e-06 -2.1096107999101068e-19 1.4791221287590690e-06 3.8515581095660591e-03  0.0000000000000000e+00 -1.1644636242122535e-19 -2.1155333232482377e-19 -1.1644636242122535e-19 -2.1372874029999709e-03 3.3894179601129332e-07 -2.1155333232482377e-19 3.3894179601129332e-07 3.8512601434635679e-03  0.0000000000000000e+00 -1.1646035675966163e-19 -2.1155131618912524e-19 -1.1646035675966163e-19 -2.1387952778474202e-03 1.2308153340116703e-06 -2.1155131618912524e-19 1.2308153340116703e-06 3.8542633463289960e-03  0.0000000000000000e+00 -1.1670477630619501e-19 -2.1185233481704616e-19 -1.1670477630619501e-19 -2.1382076631075177e-03 2.4427976177240897e-07 -2.1185233481704616e-19 2.4427976177240897e-07 3.8527222588492041e-03  0.0000000000000000e+00 -1.1671030124157789e-19 -2.1184550571279264e-19 -1.1671030124157789e-19 -2.1395513372224912e-03 1.1365175079322865e-06 -2.1184550571279264e-19 1.1365175079322865e-06 3.8556278578620934e-03  0.0000000000000000e+00 -1.1693921456431126e-19 -2.1211853585041009e-19 -1.1693921456431126e-19 -2.1387179629270953e-03 2.0811501980925705e-07 -2.1211853585041009e-19 2.0811501980925705e-07 3.8537324164760554e-03  0.0000000000000000e+00 -1.1695073020451384e-19 -2.1212812037193382e-19 -1.1695073020451384e-19 -2.1402174102170845e-03 1.0382160989082163e-06 -2.1212812037193382e-19 1.0382160989082163e-06 3.8568572779846210e-03  0.0000000000000000e+00 -1.1715711272879956e-19 -2.1236149302229227e-19 -1.1715711272879956e-19 -2.1391446982416706e-03 1.8594454569009956e-07 -2.1236149302229227e-19 1.8594454569009956e-07 3.8545662337889450e-03  0.0000000000000000e+00 -1.1717446100629807e-19 -2.1239155164022608e-19 -1.1717446100629807e-19 -2.1407044575399454e-03 9.3024840921869444e-07 -2.1239155164022608e-19 9.3024840921869444e-07 3.8578435699526208e-03  0.0000000000000000e+00 -1.1738509703497269e-19 -2.1260746904512557e-19 -1.1738509703497269e-19 -2.1396503975627894e-03 2.1997321669037804e-07 -2.1260746904512557e-19 2.1997321669037804e-07 3.8554641004035152e-03  0.0000000000000000e+00 -1.1739454625372173e-19 -2.1264481575407977e-19 -1.1739454625372173e-19 -2.1411742907537601e-03 8.1461862176672109e-07 -2.1264481575407977e-19 8.1461862176672109e-07 3.8586798409137729e-03  0.0000000000000000e+00 -1.1763032025165216e-19 -2.1287250058930696e-19 -1.1763032025165216e-19 -2.1401835371334848e-03 2.1366005817575761e-07 -2.1287250058930696e-19 2.1366005817575761e-07 3.8563414487617822e-03  0.0000000000000000e+00 -1.1762653387925132e-19 -2.1291101631160325e-19 -1.1762653387925132e-19 -2.1416567536018884e-03 7.0108105970175870e-07 -2.1291101631160325e-19 7.0108105970175870e-07 3.8595515540266936e-03  0.0000000000000000e+00 -1.1784804619082800e-19 -2.1311209008977509e-19 -1.1784804619082800e-19 -2.1404939181905603e-03 1.5941796398115749e-07 -2.1311209008977509e-19 1.5941796398115749e-07 3.8569372045415416e-03  0.0000000000000000e+00 -1.1785768464710798e-19 -2.1317110957369142e-19 -1.1785768464710798e-19 -2.1420783370144267e-03 5.9439550288801724e-07 -2.1317110957369142e-19 5.9439550288801724e-07 3.8602811479498487e-03  0.0000000000000000e+00 -1.1807501832144195e-19 -2.1335930956116467e-19 -1.1807501832144195e-19 -2.1408906234177292e-03 8.4578829970395866e-08 -2.1335930956116467e-19 8.4578829970395866e-08 3.8575489751617466e-03  0.0000000000000000e+00 -1.1807765385839457e-19 -2.1341618452942216e-19 -1.1807765385839457e-19 -2.1424663857781989e-03 5.0196400046645944e-07 -2.1341618452942216e-19 5.0196400046645944e-07 3.8609365985946679e-03  0.0000000000000000e+00 -1.1829850813887035e-19 -2.1359781744749471e-19 -1.1829850813887035e-19 -2.1410804957123389e-03 6.9520839497744382e-08 -2.1359781744749471e-19 6.9520839497744382e-08 3.8579792729565572e-03  0.0000000000000000e+00 -1.1830377295510699e-19 -2.1366428602426446e-19 -1.1830377295510699e-19 -2.1427637042688687e-03 4.1786704672340902e-07 -2.1366428602426446e-19 4.1786704672340902e-07 3.8614617228600180e-03  0.0000000000000000e+00 -1.1849677925783558e-19 -2.1381313731139286e-19 -1.1849677925783558e-19 -2.1411677606174048e-03 -2.2244375270082667e-08 -2.1381313731139286e-19 -2.2244375270082667e-08 3.8581901303149460e-03  0.0000000000000000e+00 -1.1850855118783349e-19 -2.1388702073553463e-19 -1.1850855118783349e-19 -2.1428572891015797e-03 3.2855709949289079e-07 -2.1388702073553463e-19 3.2855709949289079e-07 3.8617001629590495e-03  0.0000000000000000e+00 -1.1870975851541557e-19 -2.1403096227960125e-19 -1.1870975851541557e-19 -2.1413495565827750e-03 -1.8681520229584532e-08 -2.1403096227960125e-19 -1.8681520229584532e-08 3.8584663445543860e-03  0.0000000000000000e+00 -1.1871398665771169e-19 -2.1411043231945309e-19 -1.1871398665771169e-19 -2.1430489068653426e-03 2.4465465009109198e-07 -2.1411043231945309e-19 2.4465465009109198e-07 3.8620478047041735e-03  0.0000000000000000e+00 -1.1891234943308533e-19 -2.1423356158495252e-19 -1.1891234943308533e-19 -2.1412748378349779e-03 2.2140721152463538e-08 -2.1423356158495252e-19 2.2140721152463538e-08 3.8584734213878867e-03  0.0000000000000000e+00 -1.1890952388166182e-19 -2.1432064118748192e-19 -1.1890952388166182e-19 -2.1430897530679517e-03 1.4007242179834891e-07 -2.1432064118748192e-19 1.4007242179834891e-07 3.8621437872924593e-03  0.0000000000000000e+00 -1.1913371222591353e-19 -2.1445888276257631e-19 -1.1913371222591353e-19 -2.1413129592003756e-03 -1.5580219561329540e-09 -2.1445888276257631e-19 -1.5580219561329540e-09 3.8585354531881413e-03  0.0000000000000000e+00 -1.1911420235681037e-19 -2.1454249564079968e-19 -1.1911420235681037e-19 -2.1430391305438091e-03 -4.2483250221729101e-09 -2.1454249564079968e-19 -4.2483250221729101e-09 3.8621139381922478e-03  0.0000000000000000e+00 -1.1933782966459055e-19 -2.1464775393715474e-19 -1.1933782966459055e-19 -2.1413662435603451e-03 7.8762822604542547e-08 -2.1464775393715474e-19 7.8762822604542547e-08 3.8584747269596567e-03  0.0000000000000000e+00 -1.1932683075167420e-19 -2.1477075264966693e-19 -1.1932683075167420e-19 -2.1430687170590828e-03 -1.5860127400176984e-07 -2.1477075264966693e-19 -1.5860127400176984e-07 3.8621163588909036e-03  0.0000000000000000e+00 -1.1951817080808975e-19 -2.1482864844077913e-19 -1.1951817080808975e-19 -2.1412235108552828e-03 -7.5166630146771194e-09 -2.1482864844077913e-19 -7.5166630146771194e-09 3.8581694037311248e-03  0.0000000000000000e+00 -1.1950455359524855e-19 -2.1495169948699819e-19 -1.1950455359524855e-19 -2.1429159413767127e-03 -2.5392430110334143e-07 -2.1495169948699819e-19 -2.5392430110334143e-07 3.8618310154611589e-03  0.0000000000000000e+00 -1.1971314879004742e-19 -2.1502838441094959e-19 -1.1971314879004742e-19 -2.1409772324663318e-03 -1.0043404885574966e-07 -2.1502838441094959e-19 -1.0043404885574966e-07 3.8578230028690880e-03  0.0000000000000000e+00 -1.1969679644029002e-19 -2.1514781222832009e-19 -1.1969679644029002e-19 -2.1428527500130415e-03 -3.5817514456273471e-07 -2.1514781222832009e-19 -3.5817514456273471e-07 3.8616290362654005e-03  0.0000000000000000e+00 -1.1989773177248069e-19 -2.1520663392425615e-19 -1.1989773177248069e-19 -2.1407011787202279e-03 -1.5181990428108546e-07 -2.1520663392425615e-19 -1.5181990428108546e-07 3.8573300837723384e-03  0.0000000000000000e+00 -1.1988751562316631e-19 -2.1533948270142786e-19 -1.1988751562316631e-19 -2.1426376327182747e-03 -4.7475121365654688e-07 -2.1533948270142786e-19 -4.7475121365654688e-07 3.8611979037530366e-03  0.0000000000000000e+00 -1.2008543748146990e-19 -2.1537889571500157e-19 -1.2008543748146990e-19 -2.1404273757599525e-03 -1.5335155345816857e-07 -2.1537889571500157e-19 -1.5335155345816857e-07 3.8567750046188663e-03  0.0000000000000000e+00 -1.2006869867498032e-19 -2.1551708086455857e-19 -1.2006869867498032e-19 -2.1422387093946926e-03 -5.4194006948024283e-07 -2.1551708086455857e-19 -5.4194006948024283e-07 3.8606000231034229e-03  0.0000000000000000e+00 -1.2025188503276879e-19 -2.1553473143216212e-19 -1.2025188503276879e-19 -2.1399499805255973e-03 -1.8412760654163039e-07 -2.1553473143216212e-19 -1.8412760654163039e-07 3.8560448914705383e-03  0.0000000000000000e+00 -1.2024458120897739e-19 -2.1568852671859030e-19 -1.2024458120897739e-19 -2.1418688950911465e-03 -6.3263977440756616e-07 -2.1568852671859030e-19 -6.3263977440756616e-07 3.8599688852691944e-03  0.0000000000000000e+00 -1.2043183484984816e-19 -2.1569671846453457e-19 -1.2043183484984816e-19 -2.1395400734149513e-03 -1.9654630131358626e-07 -2.1569671846453457e-19 -1.9654630131358626e-07 3.8552865582057137e-03  0.0000000000000000e+00 -1.2041790304501197e-19 -2.1585176960724130e-19 -1.2041790304501197e-19 -2.1415252427878680e-03 -7.1473815260691449e-07 -2.1585176960724130e-19 -7.1473815260691449e-07 3.8592794700346355e-03  0.0000000000000000e+00 -1.2059951744829326e-19 -2.1584419238296793e-19 -1.2059951744829326e-19 -2.1391138733090147e-03 -2.3294637952622605e-07 -2.1584419238296793e-19 -2.3294637952622605e-07 3.8544235107300698e-03  0.0000000000000000e+00 -1.2058208891743331e-19 -2.1600638482052718e-19 -1.2058208891743331e-19 -2.1410119283703636e-03 -8.1881419153465960e-07 -2.1600638482052718e-19 -8.1881419153465960e-07 3.8583855938717770e-03  0.0000000000000000e+00 -1.2076990977574082e-19 -2.1599348870390939e-19 -1.2076990977574082e-19 -2.1385539525770000e-03 -2.7517507648453512e-07 -2.1599348870390939e-19 -2.7517507648453512e-07 3.8533991007352274e-03  0.0000000000000000e+00 -1.2074329134307293e-19 -2.1615935089055231e-19 -1.2074329134307293e-19 -2.1404873466216259e-03 -9.5053713199292850e-07 -2.1615935089055231e-19 -9.5053713199292850e-07 3.8574491932521016e-03  0.0000000000000000e+00 -1.2092557162613020e-19 -2.1611910826334899e-19 -1.2092557162613020e-19 -2.1377357550265591e-03 -2.8591775753537207e-07 -2.1611910826334899e-19 -2.8591775753537207e-07 3.8520182240194818e-03  0.0000000000000000e+00 -1.2090714754600851e-19 -2.1631151941232486e-19 -1.2090714754600851e-19 -2.1398775445604697e-03 -1.1046525294260818e-06 -2.1631151941232486e-19 -1.1046525294260818e-06 3.8563206138476705e-03  0.0000000000000000e+00 -1.2109954990570134e-19 -2.1626532480470646e-19 -1.2109954990570134e-19 -2.1370540937719314e-03 -2.7364523978488805e-07 -2.1626532480470646e-19 -2.7364523978488805e-07 3.8508609967896450e-03  0.0000000000000000e+00 -1.2107805730742155e-19 -2.1646590986610579e-19 -1.2107805730742155e-19 -2.1392424862017759e-03 -1.2199099830199629e-06 -2.1646590986610579e-19 -1.2199099830199629e-06 3.8551574551898638e-03  0.0000000000000000e+00 -1.2127486221845277e-19 -2.1640826000950992e-19 -1.2127486221845277e-19 -2.1363727215447286e-03 -3.1609940554581389e-07 -2.1640826000950992e-19 -3.1609940554581389e-07 3.8495114621033711e-03  0.0000000000000000e+00 -1.2125070652040284e-19 -2.1661955622063380e-19 -1.2125070652040284e-19 -2.1385236211684923e-03 -1.3455368653684740e-06 -2.1661955622063380e-19 -1.3455368653684740e-06 3.8538450113280603e-03  0.0000000000000000e+00 -1.2144063854518499e-19 -2.1654139640786462e-19 -1.2144063854518499e-19 -2.1354893212700865e-03 -3.7267029952249194e-07 -2.1654139640786462e-19 -3.7267029952249194e-07 3.8479269313641787e-03  0.0000000000000000e+00 -1.2141542504609259e-19 -2.1675996238074465e-19 -1.2141542504609259e-19 -2.1377433420190421e-03 -1.4414079515159189e-06 -2.1675996238074465e-19 -1.4414079515159189e-06 3.8524350173645351e-03  0.0000000000000000e+00 -1.2159238295177350e-19 -2.1666047417573452e-19 -1.2159238295177350e-19 -2.1345886252186496e-03 -4.3330268008152531e-07 -2.1666047417573452e-19 -4.3330268008152531e-07 3.8463165007025417e-03  0.0000000000000000e+00 -1.2157283025384702e-19 -2.1688111876379728e-19 -1.2157283025384702e-19 -2.1368354774507110e-03 -1.4832787905826051e-06 -2.1688111876379728e-19 -1.4832787905826051e-06 3.8507904103445892e-03  0.0000000000000000e+00 -1.2175823557465613e-19 -2.1679088850801825e-19 -1.2175823557465613e-19 -2.1336086195551827e-03 -4.8105007472528095e-07 -2.1679088850801825e-19 -4.8105007472528095e-07 3.8446026007613893e-03  0.0000000000000000e+00 -1.2173141096861346e-19 -2.1700852529238869e-19 -1.2173141096861346e-19 -2.1359541627245684e-03 -1.5595331595111886e-06 -2.1700852529238869e-19 -1.5595331595111886e-06 3.8491950026698072e-03  0.0000000000000000e+00 -1.2191958392081038e-19 -2.1691129185544799e-19 -1.2191958392081038e-19 -2.1326074615741568e-03 -5.2079525715165892e-07 -2.1691129185544799e-19 -5.2079525715165892e-07 3.8427843528892587e-03  0.0000000000000000e+00 -1.2188918470953617e-19 -2.1713503666230122e-19 -1.2188918470953617e-19 -2.1349140418337989e-03 -1.6599675577916814e-06 -2.1713503666230122e-19 -1.6599675577916814e-06 3.8473908401717096e-03  0.0000000000000000e+00 -1.2207286524862985e-19 -2.1701335013277717e-19 -1.2207286524862985e-19 -2.1316042631919674e-03 -4.8609672042004994e-07 -2.1701335013277717e-19 -4.8609672042004994e-07 3.8409277991383046e-03  0.0000000000000000e+00 -1.2203944983873150e-19 -2.1725938759172472e-19 -1.2203944983873150e-19 -2.1339087346913936e-03 -1.8140080925417858e-06 -2.1725938759172472e-19 -1.8140080925417858e-06 3.8456106232363204e-03  0.0000000000000000e+00 -1.2221974100352452e-19 -2.1710485918180342e-19 -1.2221974100352452e-19 -2.1303983527643485e-03 -4.7665264556364313e-07 -2.1710485918180342e-19 -4.7665264556364313e-07 3.8387433789571291e-03  0.0000000000000000e+00 -1.2218739185921907e-19 -2.1736876297643611e-19 -1.2218739185921907e-19 -2.1328332472359207e-03 -1.9365606190980621e-06 -2.1736876297643611e-19 -1.9365606190980621e-06 3.8435952759793665e-03  0.0000000000000000e+00 -1.2235868149336873e-19 -2.1719321237421896e-19 -1.2235868149336873e-19 -2.1291194987842904e-03 -5.1700763436922393e-07 -2.1719321237421896e-19 -5.1700763436922393e-07 3.8364725152653014e-03  0.0000000000000000e+00 -1.2233175713486887e-19 -2.1746856068321716e-19 -1.2233175713486887e-19 -2.1316135414435737e-03 -2.0238388644209478e-06 -2.1746856068321716e-19 -2.0238388644209478e-06 3.8413981557554816e-03  0.0000000000000000e+00 -1.2251634277436755e-19 -2.1729816673225311e-19 -1.2251634277436755e-19 -2.1277953567192557e-03 -5.3849959258665831e-07 -2.1729816673225311e-19 -5.3849959258665831e-07 3.8341559057647394e-03  0.0000000000000000e+00 -1.2248268667381007e-19 -2.1756960052151149e-19 -1.2248268667381007e-19 -2.1304139943208122e-03 -2.0829314883503564e-06 -2.1756960052151149e-19 -2.0829314883503564e-06 3.8391816904342030e-03  0.0000000000000000e+00 -1.2265856439772279e-19 -2.1739371383287685e-19 -1.2265856439772279e-19 -2.1263124891287922e-03 -6.7404503566946543e-07 -2.1739371383287685e-19 -6.7404503566946543e-07 3.8315611338366946e-03  0.0000000000000000e+00 -1.2262108062517857e-19 -2.1766668941818553e-19 -1.2262108062517857e-19 -2.1289246036086985e-03 -2.2382899981282935e-06 -2.1766668941818553e-19 -2.2382899981282935e-06 3.8366374969850802e-03  0.0000000000000000e+00 -1.2280202599934572e-19 -2.1745647654127623e-19 -1.2280202599934572e-19 -2.1251098250469037e-03 -5.9757000767291172e-07 -2.1745647654127623e-19 -5.9757000767291172e-07 3.8290576777907821e-03  0.0000000000000000e+00 -1.2274865896253290e-19 -2.1775147452008853e-19 -1.2274865896253290e-19 -2.1275793482095602e-03 -2.3943036854724905e-06 -2.1775147452008853e-19 -2.3943036854724905e-06 3.8342093198156691e-03  0.0000000000000000e+00 -1.2294546644245393e-19 -2.1752812223034546e-19 -1.2294546644245393e-19 -2.1237109707959029e-03 -5.4123811599562221e-07 -2.1752812223034546e-19 -5.4123811599562221e-07 3.8264781480114806e-03  0.0000000000000000e+00 -1.2288786444351015e-19 -2.1784035844648040e-19 -1.2288786444351015e-19 -2.1262037965264270e-03 -2.4911208693089789e-06 -2.1784035844648040e-19 -2.4911208693089789e-06 3.8317336212255401e-03  0.0000000000000000e+00 -1.2306633425745700e-19 -2.1759301587893513e-19 -1.2306633425745700e-19 -2.1220250591175590e-03 -6.2351360054872132e-07 -2.1759301587893513e-19 -6.2351360054872132e-07 3.8236193444273489e-03  0.0000000000000000e+00 -1.2302031149253542e-19 -2.1791315912643727e-19 -1.2302031149253542e-19 -2.1246884095459276e-03 -2.5961265027583586e-06 -2.1791315912643727e-19 -2.5961265027583586e-06 3.8289337295179344e-03  0.0000000000000000e+00 -1.2318069372064357e-19 -2.1763936630018809e-19 -1.2318069372064357e-19 -2.1203003337547537e-03 -6.8441533922951524e-07 -2.1763936630018809e-19 -6.8441533922951524e-07 3.8205476735982194e-03  0.0000000000000000e+00 -1.2314198479486737e-19 -2.1797175285514510e-19 -1.2314198479486737e-19 -2.1230977459088447e-03 -2.6764203027627659e-06 -2.1797175285514510e-19 -2.6764203027627659e-06 3.8260461377053385e-03  0.0000000000000000e+00 -1.2333276086384396e-19 -2.1773095173319835e-19 -1.2333276086384396e-19 -2.1187780207542091e-03 -7.5580550706349062e-07 -2.1773095173319835e-19 -7.5580550706349062e-07 3.8177930386347420e-03  0.0000000000000000e+00 -1.2327405738230450e-19 -2.1803860124630266e-19 -1.2327405738230450e-19 -2.1214110662722387e-03 -2.7455827320205999e-06 -2.1803860124630266e-19 -2.7455827320205999e-06 3.8230461585433517e-03  0.0000000000000000e+00 -1.2344798400311634e-19 -2.1777047773844662e-19 -1.2344798400311634e-19 -2.1169441728383074e-03 -8.0089821341275980e-07 -2.1777047773844662e-19 -8.0089821341275980e-07 3.8145053669673252e-03  0.0000000000000000e+00 -1.2340223473288848e-19 -2.1810323167904191e-19 -1.2340223473288848e-19 -2.1196954749868073e-03 -2.8588939074464735e-06 -2.1810323167904191e-19 -2.8588939074464735e-06 3.8199591854029490e-03  0.0000000000000000e+00 -1.2355782976432556e-19 -2.1780001421533539e-19 -1.2355782976432556e-19 -2.1151202937504609e-03 -7.9230254262996257e-07 -2.1780001421533539e-19 -7.9230254262996257e-07 3.8112519557718782e-03  0.0000000000000000e+00 -1.2351181758882660e-19 -2.1814637798752700e-19 -1.2351181758882660e-19 -2.1179026189523040e-03 -2.9606678582433817e-06 -2.1814637798752700e-19 -2.9606678582433817e-06 3.8167659670261707e-03  0.0000000000000000e+00 -1.2368484450743880e-19 -2.1785048367509105e-19 -1.2368484450743880e-19 -2.1133787914467050e-03 -8.1949027245765499e-07 -2.1785048367509105e-19 -8.1949027245765499e-07 3.8080771607688453e-03  0.0000000000000000e+00 -1.2363690195440385e-19 -2.1820268581523010e-19 -1.2363690195440385e-19 -2.1161775600859927e-03 -3.0594008557778029e-06 -2.1820268581523010e-19 -3.0594008557778029e-06 3.8136044742053594e-03  0.0000000000000000e+00 -1.2381271508817855e-19 -2.1789578796071954e-19 -1.2381271508817855e-19 -2.1115639684161740e-03 -8.2297969684624260e-07 -2.1789578796071954e-19 -8.2297969684624260e-07 3.8047679767444346e-03  0.0000000000000000e+00 -1.2375627120641921e-19 -2.1825704643284532e-19 -1.2375627120641921e-19 -2.1143625005625405e-03 -3.2057201204836611e-06 -2.1825704643284532e-19 -3.2057201204836611e-06 3.8103256847042289e-03  0.0000000000000000e+00 -1.2391118994445926e-19 -2.1791166112958445e-19 -1.2391118994445926e-19 -2.1095096797517959e-03 -8.8903230943322503e-07 -2.1791166112958445e-19 -8.8903230943322503e-07 3.8010935631428567e-03  0.0000000000000000e+00 -1.2386657055996508e-19 -2.1829760616535673e-19 -1.2386657055996508e-19 -2.1124411885303888e-03 -3.3391586032542890e-06 -2.1829760616535673e-19 -3.3391586032542890e-06 3.8068811783837577e-03  0.0000000000000000e+00 -1.2403368926245997e-19 -2.1794327578822457e-19 -1.2403368926245997e-19 -2.1075115669451899e-03 -8.6878446852822058e-07 -2.1794327578822457e-19