<?xml version="1.0"?>
<VTKFile type="UnstructuredGrid"  version="0.1"  >
<UnstructuredGrid>
<Piece  NumberOfPoints="10049" NumberOfCells="19698">
<Points>
<DataArray  type="Float64"  NumberOfComponents="3"  format="ascii">3.875499574247055e-23 9.29896634840042e-07 2.832266607097074e-08  3.847840040459637e-23 9.292781534749271e-07 3.019553402702106e-08  3.869596087308822e-23 9.307906618468209e-07 2.974843190925393e-08  3.822619727987443e-23 9.289588210231773e-07 3.214784537230994e-08  3.846725948954085e-23 9.304594087353973e-07 3.147713772927643e-08  3.896563444806269e-23 9.318448912844064e-07 2.837365772330594e-08  3.824928819014011e-23 9.303577470673111e-07 3.333878698670745e-08  3.866378436864314e-23 9.317578673327725e-07 3.10054575820634e-08  3.849093502564464e-23 9.316568417346818e-07 3.246132045741128e-08  3.884101871320748e-23 9.320469779537818e-07 2.969818314679827e-08  3.949886498170425e-23 9.335139916493695e-07 2.523984442304769e-08  3.922977892304383e-23 9.324638142699333e-07 2.661337879063879e-08  3.936274806362633e-23 9.337852478658246e-07 2.673713284257187e-08  3.900452492426054e-23 9.330108463907857e-07 2.918931856145945e-08  3.884901675556628e-23 9.328900535735447e-07 3.046921880538753e-08  3.957500343297657e-23 9.347286849597672e-07 2.576874353188823e-08  3.916858809167488e-23 9.332325037385929e-07 2.793322627000184e-08  3.80180333217813e-23 9.304594161508549e-07 3.552341474818792e-08  3.831040448401863e-23 9.316762524954711e-07 3.410680577819239e-08  3.965590912550287e-23 9.344300709030446e-07 2.474139578173848e-08  3.9446451719463e-23 9.347127553296636e-07 2.691070479993964e-08  3.901398923690373e-23 9.338362385819245e-07 2.992946380281189e-08  3.818143977075471e-23 9.319507081118266e-07 3.554287226374647e-08  3.868786252260247e-23 9.327527731239027e-07 3.178348664279557e-08  3.796659277209406e-23 9.316043967976421e-07 3.713173067578155e-08  3.775103060719324e-23 9.314655006894149e-07 3.893444593859938e-08  3.757406067509398e-23 9.31550826968658e-07 4.061377565835848e-08  3.777901601996191e-23 9.326243451412419e-07 3.984122020139273e-08  3.977661246410393e-23 9.35411003176174e-07 2.463512903337564e-08  3.796238305711783e-23 9.327027257812419e-07 3.826797740097794e-08  3.957374089735693e-23 9.354890621779031e-07 2.654049265991637e-08  3.915456212375609e-23 9.340322324024164e-07 2.885928962161047e-08  3.930534936626116e-23 9.343348650813161e-07 2.780375156219403e-08  3.822186856601342e-23 9.331669216333257e-07 3.639493557072119e-08  3.838321859723302e-23 9.329556761883546e-07 3.473037824479646e-08  3.88668495470353e-23 9.33740892905536e-07 3.115943463134918e-08  3.79619500140237e-23 9.336403573041074e-07 3.920950942927813e-08  3.852992338897636e-23 9.328153042441853e-07 3.326860700976968e-08  3.943643832544897e-23 9.353481584282166e-07 2.763630053359337e-08  3.970045357480362e-23 9.357252048218529e-07 2.563530897000222e-08  3.915334219735804e-23 9.347092776543421e-07 2.954732299367946e-08  3.968145895771154e-23 9.362026584016326e-07 2.628385085069769e-08  3.983208392795185e-23 9.362084158151501e-07 2.493289914452126e-08  3.902597476474296e-23 9.346118497545047e-07 3.05971189379709e-08  3.873212842911625e-23 9.337888308240259e-07 3.242083250275742e-08  3.958480594800768e-23 9.361312889671999e-07 2.708305433323818e-08  3.978401686286721e-23 9.364595525950693e-07 2.56169855572485e-08  3.991653786263741e-23 9.362067504352367e-07 2.417054034704821e-08  3.928408901751444e-23 9.349656457059822e-07 2.862602838424718e-08  3.890307212092321e-23 9.346285008606525e-07 3.172077864593762e-08  3.814587207400059e-23 9.339341685394531e-07 3.784669802306954e-08  3.842872729440416e-23 9.339336131008683e-07 3.52984092540661e-08  3.858424268118089e-23 9.340113495875557e-07 3.397538766487739e-08  3.994419559334895e-23 9.368099529701452e-07 2.452462419050398e-08  3.91571874155517e-23 9.353900436786569e-07 3.019345437154612e-08  3.837479495280545e-23 9.34610995357734e-07 3.646157085798612e-08  3.949935869562859e-23 9.361121390844166e-07 2.78335448784034e-08  3.969656949768672e-23 9.367902441720417e-07 2.673533297670355e-08  3.880319234883061e-23 9.347868120227318e-07 3.277872681677312e-08  3.904955075192258e-23 9.353589357665879e-07 3.113185133590007e-08  3.797682897818549e-23 9.344551259662505e-07 3.98902602965118e-08  3.811020514802867e-23 9.345846934120289e-07 3.881848200467853e-08  3.856625632208515e-23 9.348680596186085e-07 3.499410441617285e-08  3.960584851349405e-23 9.368081020850852e-07 2.757033287095677e-08  3.976817491470075e-23 9.367817911795091e-07 2.608191572540691e-08  3.938799603615719e-23 9.357694432314436e-07 2.849391468882715e-08  3.92755424038451e-23 9.355335202631807e-07 2.927088399371867e-08  3.89535152023162e-23 9.354306596383586e-07 3.2068586538514e-08  3.810879883206638e-23 9.352131930131312e-07 3.945964857386831e-08  3.948150143778173e-23 9.364889300830208e-07 2.837117975657759e-08  3.826627564385271e-23 9.349584165404378e-07 3.778644707941409e-08  3.853663972915738e-23 9.355639714661688e-07 3.595677881748008e-08  3.870754349523798e-23 9.350094864679085e-07 3.386292954474622e-08  3.917413374533047e-23 9.360324786104136e-07 3.068325033434887e-08  3.981304517378656e-23 9.37322636751574e-07 2.621860593327405e-08  3.987561955502018e-23 9.367946189337388e-07 2.512696819542544e-08  3.927269753390081e-23 9.360911467563858e-07 2.985413479736578e-08  3.98511426566342e-23 9.370488474692974e-07 2.560166503188469e-08  3.865112630071274e-23 9.357537138877522e-07 3.511531787707218e-08  3.97241433043746e-23 9.373583193209808e-07 2.705504535459329e-08  3.99493060258395e-23 9.373267291131927e-07 2.499536964983112e-08  3.908494718115105e-23 9.360450163431798e-07 3.149910922152477e-08  3.887996411013186e-23 9.356787836090304e-07 3.297919985189395e-08  3.84304570017365e-23 9.357346534229927e-07 3.708386975759576e-08  3.937651724383484e-23 9.362454247076841e-07 2.907328793471891e-08  3.864991595669314e-23 9.362674740122262e-07 3.563997981129752e-08  3.966858102390816e-23 9.374875108219055e-07 2.768469738672705e-08  3.901553757791619e-23 9.361777350142118e-07 3.225701401908566e-08  3.879585100304603e-23 9.35792060255199e-07 3.385010001351998e-08  3.821897532728375e-23 9.353798893047883e-07 3.863396321991344e-08  3.821380520964545e-23 9.35882376151544e-07 3.918301834640778e-08  3.990418860445622e-23 9.375287722232062e-07 2.560379436410395e-08  3.956380873531408e-23 9.371174107002589e-07 2.825830214482256e-08  3.981914636867714e-23 9.378141531215506e-07 2.665516762517925e-08  3.92790803013569e-23 9.366474544009841e-07 3.035295158369044e-08  3.919668154000187e-23 9.366182415547406e-07 3.106592079931547e-08  3.975735310715897e-23 9.379018126835799e-07 2.729941140630291e-08  3.873335484858572e-23 9.363838243281617e-07 3.500477940236181e-08  3.912309102629147e-23 9.366443953378134e-07 3.175491900263673e-08  3.889209460399989e-23 9.362197769192205e-07 3.341093138675626e-08  3.833188675914829e-23 9.35699832080393e-07 3.793689023057614e-08  3.85770701775949e-23 9.363381254988951e-07 3.636676774517108e-08  3.99966877955388e-23 9.379046813634516e-07 2.514654485936612e-08  3.87592213028415e-23 9.361010264495509e-07 3.448899721625557e-08  3.831663492303966e-23 9.361226557200345e-07 3.849709019704877e-08  3.937436461020893e-23 9.367409555122924e-07 2.958820793931826e-08  3.946658589212061e-23 9.368972700827629e-07 2.891386704808251e-08  3.988637523941392e-23 9.378197138364969e-07 2.605518450572807e-08  3.882830495597143e-23 9.367044350573738e-07 3.447015559509181e-08  3.873144322266896e-23 9.367501765023716e-07 3.538834997210444e-08  3.962733428113343e-23 9.376808444208515e-07 2.824954861645407e-08  3.970816017410323e-23 9.380227299794702e-07 2.786341925215139e-08  3.868892766077323e-23 9.354646460509308e-07 3.448576565808581e-08  3.983533181956969e-23 9.382691586203337e-07 2.696438754274523e-08  3.989711175056889e-23 9.382197818307549e-07 2.635854660471255e-08  3.906621875199202e-23 9.367637907483692e-07 3.238657431987787e-08  3.921785951743452e-23 9.371223693961123e-07 3.1379294378139e-08  3.928798247439034e-23 9.371164604457082e-07 3.074177398210217e-08  3.851941367446682e-23 9.365876067938774e-07 3.71355726521597e-08  3.88589722601269e-23 9.364525407617877e-07 3.394203478037162e-08  3.841777417735256e-23 9.363381142778861e-07 3.780156733882816e-08  3.897496009821391e-23 9.364307919506227e-07 3.287556040043029e-08  3.91569636095766e-23 9.371677713089073e-07 3.197319786680856e-08  3.954254224815214e-23 9.374440857351191e-07 2.877652866699872e-08  3.994493921123302e-23 9.381715352263068e-07 2.587950853221436e-08  3.9945397358335e-23 9.379203460705062e-07 2.562419275417821e-08  3.894936403285675e-23 9.367684472424973e-07 3.34437645531142e-08  3.863053800911251e-23 9.369989529078996e-07 3.65459997419776e-08  3.879880342949828e-23 9.369117302864865e-07 3.49431769514672e-08  3.979223309996083e-23 9.384430662287588e-07 2.752649390631153e-08  3.937469469071498e-23 9.372283475757623e-07 3.007262690189997e-08  3.868938352628647e-23 9.368723086002071e-07 3.588932213585095e-08  3.910638816709019e-23 9.372186168235712e-07 3.247958646934426e-08  4.007960917762119e-23 9.381938812972346e-07 2.468885538225448e-08  4.005518917198258e-23 9.383623473112451e-07 2.507727725285393e-08  3.99626528189905e-23 9.384794883881815e-07 2.602791169949703e-08  3.929822005494952e-23 9.375206382830695e-07 3.105373989148054e-08  3.89194453973005e-23 9.370230440792422e-07 3.396784450174419e-08  3.903346193791989e-23 9.370155441059713e-07 3.293337482877816e-08  3.999725166999751e-23 9.382236369865172e-07 2.546042155282754e-08  3.946726489425812e-23 9.373627728591461e-07 2.937325391691885e-08  3.924543907647381e-23 9.3765238515096e-07 3.166089554936192e-08  3.966821794748265e-23 9.381217268729055e-07 2.832218373943634e-08  3.917269365868031e-23 9.375978421586363e-07 3.226158502997363e-08  3.993611105543375e-23 9.385500409066814e-07 2.633753117092475e-08  4.011440470962432e-23 9.385594233634919e-07 2.474098715858492e-08  3.888662312030607e-23 9.373170563890951e-07
[...]
<PointData  Tensors="f_45"> 
<DataArray  type="Float64"  Name="f_45"  NumberOfComponents="9" format="ascii">0.0000000000000000e+00 -1.5678331229518454e-19 -4.3447487525590459e-19 -1.5678331229518454e-19 -1.4543558884511682e-03 -1.6316585618445761e-03 -4.3447487525590459e-19 -1.6316585618445761e-03 3.1934852426573324e-03  0.0000000000000000e+00 -1.4718340270259546e-19 -4.1255827340259316e-19 -1.4718340270259546e-19 -1.5061711553052695e-03 -1.5081168662618824e-03 -4.1255827340259316e-19 -1.5081168662618824e-03 3.2705060979734434e-03  0.0000000000000000e+00 -1.5782325084345835e-19 -4.3848105176800857e-19 -1.5782325084345835e-19 -1.7428584142186990e-03 -1.6158985759122083e-03 -4.3848105176800857e-19 -1.6158985759122083e-03 3.5669427330440461e-03  0.0000000000000000e+00 -1.4517511628418417e-19 -3.9399695374085419e-19 -1.4517511628418417e-19 -1.6138406641770270e-03 -1.3791509699061909e-03 -3.9399695374085419e-19 -1.3791509699061909e-03 3.3379144621705995e-03  0.0000000000000000e+00 -1.5172329672653304e-19 -4.1821957001012597e-19 -1.5172329672653304e-19 -1.7887985274822997e-03 -1.5005771525129321e-03 -4.1821957001012597e-19 -1.5005771525129321e-03 3.5884142906788814e-03  0.0000000000000000e+00 -1.6348128744748916e-19 -4.6442955353852502e-19 -1.6348128744748916e-19 -1.8049825935596579e-03 -1.7635755557897839e-03 -4.6442955353852502e-19 -1.7635755557897839e-03 3.6992334780816677e-03  0.0000000000000000e+00 -1.4996135148215442e-19 -4.0436060064489971e-19 -1.4996135148215442e-19 -1.8988016770772236e-03 -1.3923115091867642e-03 -4.0436060064489971e-19 -1.3923115091867642e-03 3.6970281136343261e-03  0.0000000000000000e+00 -1.6168411262738731e-19 -4.3978974564274938e-19 -1.6168411262738731e-19 -1.9942501422204992e-03 -1.5906416466232439e-03 -4.3978974564274938e-19 -1.5906416466232439e-03 3.8228725498444744e-03  0.0000000000000000e+00 -1.5827711365623269e-19 -4.2537513307530887e-19 -1.5827711365623269e-19 -2.0683881064893694e-03 -1.4887781013815092e-03 -4.2537513307530887e-19 -1.4887781013815092e-03 3.9024420666350051e-03  0.0000000000000000e+00 -1.6648695770705779e-19 -4.5625337872429849e-19 -1.6648695770705779e-19 -1.9858481503684535e-03 -1.6792805691149837e-03 -4.5625337872429849e-19 -1.6792805691149837e-03 3.8472547950094771e-03  0.0000000000000000e+00 -1.8148472205368168e-19 -5.1487674602824321e-19 -1.8148472205368168e-19 -1.8424408919582658e-03 -2.0224363826411595e-03 -5.1487674602824321e-19 -2.0224363826411595e-03 3.8034249064365878e-03  0.0000000000000000e+00 -1.7118550597368204e-19 -4.8905103778513052e-19 -1.7118550597368204e-19 -1.7567001705310317e-03 -1.9011304916944079e-03 -4.8905103778513052e-19 -1.9011304916944079e-03 3.6805955496219686e-03  0.0000000000000000e+00 -1.8018032733833163e-19 -5.0975886055103600e-19 -1.8018032733833163e-19 -2.0583345718673662e-03 -1.9668787253796899e-03 -5.0975886055103600e-19 -1.9668787253796899e-03 4.0617361585722532e-03  0.0000000000000000e+00 -1.6761305838745731e-19 -4.7399972380499221e-19 -1.6761305838745731e-19 -2.0510647306499034e-03 -1.7838459222334960e-03 -4.7399972380499221e-19 -1.7838459222334960e-03 4.0027443750056974e-03  0.0000000000000000e+00 -1.6916255029494087e-19 -4.6054084560249011e-19 -1.6916255029494087e-19 -2.1545924717936947e-03 -1.6678772678862227e-03 -4.6054084560249011e-19 -1.6678772678862227e-03 4.0678426647048939e-03  0.0000000000000000e+00 -1.8558779870344208e-19 -5.3212152328189509e-19 -1.8558779870344208e-19 -2.1313387709542479e-03 -2.0886161196756719e-03 -5.3212152328189509e-19 -2.0886161196756719e-03 4.1967031431342288e-03  0.0000000000000000e+00 -1.7217656936370696e-19 -4.8501716781776789e-19 -1.7217656936370696e-19 -2.0268649204595061e-03 -1.8498907949695159e-03 -4.8501716781776789e-19 -1.8498907949695159e-03 3.9627185410166426e-03  0.0000000000000000e+00 -1.4931859596582296e-19 -3.8641028394754319e-19 -1.4931859596582296e-19 -2.0747917180647607e-03 -1.2503107001466899e-03 -3.8641028394754319e-19 -1.2503107001466899e-03 3.8452344683598642e-03  0.0000000000000000e+00 -1.5772121043970257e-19 -4.1063437459935657e-19 -1.5772121043970257e-19 -2.2181686317246491e-03 -1.3882765056903875e-03 -4.1063437459935657e-19 -1.3882765056903875e-03 3.9976941478098707e-03  0.0000000000000000e+00 -1.8887949365996497e-19 -5.3835000890524200e-19 -1.8887949365996497e-19 -1.9777854139017923e-03 -2.1162648400500136e-03 -5.3835000890524200e-19 -2.1162648400500136e-03 4.0407568627441473e-03  0.0000000000000000e+00 -1.8387971830583808e-19 -5.1916852519703600e-19 -1.8387971830583808e-19 -2.2439373181053980e-03 -1.9929715993660265e-03 -5.1916852519703600e-19 -1.9929715993660265e-03 4.2980203024803468e-03  0.0000000000000000e+00 -1.7405677589969414e-19 -4.7590578124725220e-19 -1.7405677589969414e-19 -2.2930947287592655e-03 -1.7388826846667642e-03 -4.7590578124725220e-19 -1.7388826846667642e-03 4.2529576314474368e-03  0.0000000000000000e+00 -1.6065252250577640e-19 -4.0388015381553185e-19 -1.6065252250577640e-19 -2.3730203433191817e-03 -1.2876823972362854e-03 -4.0388015381553185e-19 -1.2876823972362854e-03 4.1792550277779039e-03  0.0000000000000000e+00 -1.6698108624465338e-19 -4.4630180594404652e-19 -1.6698108624465338e-19 -2.2482638355817439e-03 -1.5806928817342005e-03 -4.4630180594404652e-19 -1.5806928817342005e-03 4.1186728287334962e-03  0.0000000000000000e+00 -1.5797531399613984e-19 -3.8599468832775289e-19 -1.5797531399613984e-19 -2.3724081340778793e-03 -1.1739324622481550e-03 -3.8599468832775289e-19 -1.1739324622481550e-03 4.1321750866739762e-03  0.0000000000000000e+00 -1.5295870258467158e-19 -3.6663738339947135e-19 -1.5295870258467158e-19 -2.4097866652319144e-03 -1.0451825856886386e-03 -3.6663738339947135e-19 -1.0451825856886386e-03 4.1687144030328168e-03  0.0000000000000000e+00 -1.5474656023849706e-19 -3.5401523724188323e-19 -1.5474656023849706e-19 -2.5054873175275709e-03 -9.2170135503116888e-04 -3.5401523724188323e-19 -9.2170135503116888e-04 4.2517899654615438e-03  0.0000000000000000e+00 -1.6219788255768498e-19 -3.7156639255369613e-19 -1.6219788255768498e-19 -2.6535684325578873e-03 -1.0009881837792678e-03 -3.7156639255369613e-19 -1.0009881837792678e-03 4.4232398394039533e-03  0.0000000000000000e+00 -1.9516718983762192e-19 -5.5277890396955450e-19 -1.9516718983762192e-19 -2.1771462552876144e-03 -2.1686007221549085e-03 -5.5277890396955450e-19 -2.1686007221549085e-03 4.2821047410093998e-03  0.0000000000000000e+00 -1.6384437556518107e-19 -3.8758659134612691e-19 -1.6384437556518107e-19 -2.6142853508169792e-03 -1.1167662980796397e-03 -3.8758659134612691e-19 -1.1167662980796397e-03 4.4113341931302152e-03  0.0000000000000000e+00 -1.8890028947541698e-19 -5.3353849734968830e-19 -1.8890028947541698e-19 -2.3378016455240401e-03 -2.0562060485243686e-03 -5.3353849734968830e-19 -2.0562060485243686e-03 4.4338395667160467e-03  0.0000000000000000e+00 -1.7589168571892211e-19 -4.8817188942044234e-19 -1.7589168571892211e-19 -2.2423755863740665e-03 -1.8308435814499702e-03 -4.8817188942044234e-19 -1.8308435814499702e-03 4.2062284595755046e-03  0.0000000000000000e+00 -1.8277250057858594e-19 -5.0575108685095348e-19 -1.8277250057858594e-19 -2.2488519590466841e-03 -1.9137084257530848e-03 -5.0575108685095348e-19 -1.9137084257530848e-03 4.2397000706800615e-03  0.0000000000000000e+00 -1.6819509783988813e-19 -4.0733535580312101e-19 -1.6819509783988813e-19 -2.5983064363399901e-03 -1.2468458823866411e-03 -4.0733535580312101e-19 -1.2468458823866411e-03 4.4125825781767191e-03  0.0000000000000000e+00 -1.6282067015245250e-19 -4.2279079580104211e-19 -1.6282067015245250e-19 -2.4393960644297163e-03 -1.4002010506133907e-03 -4.2279079580104211e-19 -1.4002010506133907e-03 4.3221994071967222e-03  0.0000000000000000e+00 -1.7348657049924732e-19 -4.6371152753407147e-19 -1.7348657049924732e-19 -2.3815837232108610e-03 -1.6516245162330040e-03 -4.6371152753407147e-19 -1.6516245162330040e-03 4.3065627241673822e-03  0.0000000000000000e+00 -1.6989450890428706e-19 -3.8701111679561971e-19 -1.6989450890428706e-19 -2.8100585561870212e-03 -1.0589297790987999e-03 -3.8701111679561971e-19 -1.0589297790987999e-03 4.6034240955708282e-03  0.0000000000000000e+00 -1.6589777902942602e-19 -4.3245714902271728e-19 -1.6589777902942602e-19 -2.3658878370404800e-03 -1.4748521246772603e-03 -4.3245714902271728e-19 -1.4748521246772603e-03 4.2180903051815977e-03  0.0000000000000000e+00 -1.8748904554488589e-19 -5.2078859042132012e-19 -1.8748904554488589e-19 -2.4148467307826835e-03 -1.9627002539649527e-03 -5.2078859042132012e-19 -1.9627002539649527e-03 4.4936370472858497e-03  0.0000000000000000e+00 -1.9537794916267090e-19 -5.4678002373611444e-19 -1.9537794916267090e-19 -2.3604466036634291e-03 -2.1059190058691207e-03 -5.4678002373611444e-19 -2.1059190058691207e-03 4.4789056003497934e-03  0.0000000000000000e+00 -1.8019405906495305e-19 -4.9113997211885555e-19 -1.8019405906495305e-19 -2.4455719594846303e-03 -1.8051613431747061e-03 -4.9113997211885555e-19 -1.8051613431747061e-03 4.4367528657829067e-03  0.0000000000000000e+00 -1.9751053199676113e-19 -5.4588674438576663e-19 -1.9751053199676113e-19 -2.4963586473134062e-03 -2.0734177194390419e-03 -5.4588674438576663e-19 -2.0734177194390419e-03 4.6253111296346155e-03  0.0000000000000000e+00 -1.9725879258492120e-19 -5.6447404857518013e-19 -1.9725879258492120e-19 -2.3796250192847858e-03 -2.2149158044759512e-03 -5.6447404857518013e-19 -2.2149158044759512e-03 4.5649553705029615e-03  0.0000000000000000e+00 -1.7885516920758594e-19 -4.7934941716243205e-19 -1.7885516920758594e-19 -2.4964522709267985e-03 -1.7200842707304034e-03 -4.7934941716243205e-19 -1.7200842707304034e-03 4.4695068619317081e-03  0.0000000000000000e+00 -1.7252621919490482e-19 -4.5328102800920060e-19 -1.7252621919490482e-19 -2.4767074679936892e-03 -1.5744704796424760e-03 -4.5328102800920060e-19 -1.5744704796424760e-03 4.3853955181428943e-03  0.0000000000000000e+00 -1.9280307805381723e-19 -5.3400526636804069e-19 -1.9280307805381723e-19 -2.5438479285693409e-03 -2.0223195588357137e-03 -5.3400526636804069e-19 -2.0223195588357137e-03 4.6457610034977880e-03  0.0000000000000000e+00 -2.0021358017274806e-19 -5.5775131763162485e-19 -2.0021358017274806e-19 -2.4965283637534579e-03 -2.1401532840196729e-03 -5.5775131763162485e-19 -2.1401532840196729e-03 4.6570490804770858e-03  0.0000000000000000e+00 -2.0308767498645921e-19 -5.7072719230967193e-19 -2.0308767498645921e-19 -2.3013451353660641e-03 -2.2235114877790507e-03 -5.7072719230967193e-19 -2.2235114877790507e-03 4.4771269327019336e-03  0.0000000000000000e+00 -1.8428327019116137e-19 -5.0470598781457302e-19 -1.8428327019116137e-19 -2.4283205620603213e-03 -1.8764133234640812e-03 -5.0470598781457302e-19 -1.8764133234640812e-03 4.4477164418915138e-03  0.0000000000000000e+00 -1.7858312071770884e-19 -4.6871344260343764e-19 -1.7858312071770884e-19 -2.5825320036578737e-03 -1.6401845667456643e-03 -4.6871344260343764e-19 -1.6401845667456643e-03 4.5286861083003649e-03  0.0000000000000000e+00 -1.7430145063753951e-19 -4.0333256564980565e-19 -1.7430145063753951e-19 -2.8112397105833375e-03 -1.1560389972060108e-03 -4.0333256564980565e-19 -1.1560389972060108e-03 4.6250194930733367e-03  0.0000000000000000e+00 -1.7154874856806280e-19 -4.2710610041737108e-19 -1.7154874856806280e-19 -2.6816481223794811e-03 -1.3714473453973657e-03 -4.2710610041737108e-19 -1.3714473453973657e-03 4.5424654098260766e-03  0.0000000000000000e+00 -1.7372250570118412e-19 -4.4055515668887011e-19 -1.7372250570118412e-19 -2.6249486637674522e-03 -1.4642375056150574e-03 -4.4055515668887011e-19 -1.4642375056150574e-03 4.5033033627710113e-03  0.0000000000000000e+00 -2.0448061017616411e-19 -5.7605553523400156e-19 -2.0448061017616411e-19 -2.4877621693762918e-03 -2.2397383776725814e-03 -5.7605553523400156e-19 -2.2397383776725814e-03 4.7019841901536630e-03  0.0000000000000000e+00 -1.8467192391920268e-19 -4.9295348049368335e-19 -1.8467192391920268e-19 -2.6232317045893128e-03 -1.7755227103054901e-03 -4.9295348049368335e-19 -1.7755227103054901e-03 4.6256930972343431e-03  0.0000000000000000e+00 -1.7703196937382830e-19 -4.2336897939312758e-19 -1.7703196937382830e-19 -2.8608393960932918e-03 -1.2829053486425089e-03 -4.2336897939312758e-19 -1.2829053486425089e-03 4.7326417649301558e-03  0.0000000000000000e+00 -1.9183813387306048e-19 -5.2872971175877493e-19 -1.9183813387306048e-19 -2.5948663281130722e-03 -1.9833595576163976e-03 -5.2872971175877493e-19 -1.9833595576163976e-03 4.6970463514016195e-03  0.0000000000000000e+00 -2.0015864931080954e-19 -5.4928110834226483e-19 -2.0015864931080954e-19 -2.6586576664901981e-03 -2.0673616425926369e-03 -5.4928110834226483e-19 -2.0673616425926369e-03 4.8131654869077957e-03  0.0000000000000000e+00 -1.7903410141665380e-19 -4.5884242303006193e-19 -1.7903410141665380e-19 -2.7020307380262567e-03 -1.5657141670904256e-03 -4.5884242303006193e-19 -1.5657141670904256e-03 4.6111810156586807e-03  0.0000000000000000e+00 -1.8402186828423818e-19 -4.8288562557354139e-19 -1.8402186828423818e-19 -2.6877713395548207e-03 -1.7021311449268459e-03 -4.8288562557354139e-19 -1.7021311449268459e-03 4.6673598735516826e-03  0.0000000000000000e+00 -1.7624373648764411e-19 -3.8852957979413364e-19 -1.7624373648764411e-19 -2.9839053001871115e-03 -1.0149055367267245e-03 -3.8852957979413364e-19 -1.0149055367267245e-03 4.7782960059781221e-03  0.0000000000000000e+00 -1.7842587988871912e-19 -3.9973233643272980e-19 -1.7842587988871912e-19 -2.9782727858821971e-03 -1.0916084039253198e-03 -3.9973233643272980e-19 -1.0916084039253198e-03 4.7817586789368101e-03  0.0000000000000000e+00 -1.7955447815054642e-19 -4.3791571763202730e-19 -1.7955447815054642e-19 -2.8389299724004714e-03 -1.3928391235036141e-03 -4.3791571763202730e-19 -1.3928391235036141e-03 4.7074740528163239e-03  0.0000000000000000e+00 -1.9680547060209553e-19 -5.3801341313165883e-19 -1.9680547060209553e-19 -2.7141803898128466e-03 -2.0097308015895390e-03 -5.3801341313165883e-19 -2.0097308015895390e-03 4.8413746379619245e-03  0.0000000000000000e+00 -2.0174035266116437e-19 -5.5606564241836502e-19 -2.0174035266116437e-19 -2.6033700830789650e-03 -2.1061551037775262e-03 -5.5606564241836502e-19 -2.1061551037775262e-03 4.7740168471975524e-03  0.0000000000000000e+00 -1.9165668192883757e-19 -5.1559061300664685e-19 -1.9165668192883757e-19 -2.5987176775857496e-03 -1.8992800813780227e-03 -5.1559061300664685e-19 -1.8992800813780227e-03 4.6356324400084097e-03  0.0000000000000000e+00 -1.8674886712867851e-19 -5.0448367941308426e-19 -1.8674886712867851e-19 -2.5910120288408041e-03 -1.8465592569802947e-03 -5.0448367941308426e-19 -1.8465592569802947e-03 4.6216950437070799e-03  0.0000000000000000e+00 -1.8420592792451105e-19 -4.7489776678904682e-19 -1.8420592792451105e-19 -2.7773154532585225e-03 -1.6341922287023186e-03 -4.7489776678904682e-19 -1.6341922287023186e-03 4.7455696246137330e-03  0.0000000000000000e+00 -1.8307669914127173e-19 -3.9982066289896331e-19 -1.8307669914127173e-19 -3.1122930502074141e-03 -1.0515937505574835e-03 -3.9982066289896331e-19 -1.0515937505574835e-03 4.9136176867483217e-03  0.0000000000000000e+00 -1.9491576789356892e-19 -5.2634010875296766e-19 -1.9491576789356892e-19 -2.7139650529705056e-03 -1.9296432842246889e-03 -5.2634010875296766e-19 -1.9296432842246889e-03 4.8250886365046415e-03  0.0000000000000000e+00 -1.8282008430904867e-19 -4.1357834598762431e-19 -1.8282008430904867e-19 -3.0146008523686597e-03 -1.1700161843863966e-03 -4.1357834598762431e-19 -1.1700161843863966e-03 4.8315397688290206e-03  0.0000000000000000e+00 -1.8426428830319595e-19 -4.3509741552204176e-19 -1.8426428830319595e-19 -3.0054101450300605e-03 -1.3189675599660270e-03 -4.3509741552204176e-19 -1.3189675599660270e-03 4.8860829381979203e-03  0.0000000000000000e+00 -1.8129011282789287e-19 -4.5357541825778104e-19 -1.8129011282789287e-19 -2.8121737741803945e-03 -1.4873021281603257e-03 -4.5357541825778104e-19 -1.4873021281603257e-03 4.7426255181497535e-03  0.0000000000000000e+00 -1.8916544665021779e-19 -4.9506706469947783e-19 -1.8916544665021779e-19 -2.7949330237124342e-03 -1.7505878254617413e-03 -4.9506706469947783e-19 -1.7505878254617413e-03 4.8043910250236532e-03  0.0000000000000000e+00 -2.0552116954223207e-19 -5.6058060396946906e-19 -2.0552116954223207e-19 -2.7327752146372648e-03 -2.1006573701687235e-03 -5.6058060396946906e-19 -2.1006573701687235e-03 4.9276426206232614e-03  0.0000000000000000e+00 -2.0202227533045671e-19 -5.6846988646176374e-19 -2.0202227533045671e-19 -2.5184687602817827e-03 -2.1968736630147145e-03 -5.6846988646176374e-19 -2.1968736630147145e-03 4.7260547340194758e-03  0.0000000000000000e+00 -1.9046658711475171e-19 -5.0474360864165659e-19 -1.9046658711475171e-19 -2.7471995386099085e-03 -1.8138137369643741e-03 -5.0474360864165659e-19 -1.8138137369643741e-03 4.7810835728398218e-03  0.0000000000000000e+00 -2.0312864853337586e-19 -5.6716384258913411e-19 -2.0312864853337586e-19 -2.6101005178734630e-03 -2.1593724654075256e-03 -5.6716384258913411e-19 -2.1593724654075256e-03 4.8492306442557438e-03  0.0000000000000000e+00 -1.8589147097205601e-19 -4.4974087358801715e-19 -1.8589147097205601e-19 -3.0225684129007251e-03 -1.4131803128576077e-03 -4.4974087358801715e-19 -1.4131803128576077e-03 4.9492960723981341e-03  0.0000000000000000e+00 -2.0336009857631442e-19 -5.5032411169645502e-19 -2.0336009857631442e-19 -2.8058444501938397e-03 -2.0451825055275278e-03 -5.5032411169645502e-19 -2.0451825055275278e-03 4.9658274399339572e-03  0.0000000000000000e+00 -2.0684309007055163e-19 -5.7746037869045126e-19 -2.0684309007055163e-19 -2.6332280254243419e-03 -2.2195235281496600e-03 -5.7746037869045126e-19 -2.2195235281496600e-03 4.8706285008275705e-03  0.0000000000000000e+00 -1.8862336358362265e-19 -4.8701682858484811e-19 -1.8862336358362265e-19 -2.8542470973548506e-03 -1.6914042082349296e-03 -4.8701682858484811e-19 -1.6914042082349296e-03 4.8468174720422610e-03  0.0000000000000000e+00 -1.8429721066260603e-19 -4.6777169208151701e-19 -1.8429721066260603e-19 -2.8716945665180345e-03 -1.5789324078114182e-03 -4.6777169208151701e-19 -1.5789324078114182e-03 4.8204520264443322e-03  0.0000000000000000e+00 -1.8437705778590564e-19 -4.2809824745185751e-19 -1.8437705778590564e-19 -3.0745098435758359e-03 -1.2591123933558062e-03 -4.2809824745185751e-19 -1.2591123933558062e-03 4.9467756927117140e-03  0.0000000000000000e+00 -1.9305260088872222e-19 -5.1608962833930893e-19 -1.9305260088872222e-19 -2.7267748354910565e-03 -1.8783753795833889e-03 -5.1608962833930893e-19 -1.8783753795833889e-03 4.7893418221377207e-03  0.0000000000000000e+00 -1.9149780855378662e-19 -4.4654559331131257e-19 -1.9149780855378662e-19 -3.1222122519164066e-03 -1.3476643038848066e-03 -4.4654559331131257e-19 -1.3476643038848066e-03 5.0214160777294365e-03  0.0000000000000000e+00 -2.0244041327865248e-19 -5.4533140687768554e-19 -2.0244041327865248e-19 -2.8759182377197236e-03 -2.0065984067510704e-03 -5.4533140687768554e-19 -2.0065984067510704e-03 5.0396964282229118e-03  0.0000000000000000e+00 -1.8931642502036249e-19 -4.8089746272654058e-19 -1.8931642502036249e-19 -2.9336743339166194e-03 -1.6376431444742555e-03 -4.8089746272654058e-19 -1.6376431444742555e-03 4.9110450560155578e-03  0.0000000000000000e+00 -1.8627592411403346e-19 -4.6013844377571155e-19 -1.8627592411403346e-19 -2.9409504379853527e-03 -1.4934767467549603e-03 -4.6013844377571155e-19 -1.4934767467549603e-03 4.8874655104716794e-03  0.0000000000000000e+00 -1.8637917728043264e-19 -4.1045127124430191e-19 -1.8637917728043264e-19 -3.1237767770657407e-03 -1.1118649525769326e-03 -4.1045127124430191e-19 -1.1118649525769326e-03 4.9365708674311377e-03  0.0000000000000000e+00 -1.8931671425175327e-19 -4.0963788624395021e-19 -1.8931671425175327e-19 -3.2284377680862329e-03 -1.0748366093920778e-03 -4.0963788624395021e-19 -1.0748366093920778e-03 5.0477179416456774e-03  0.0000000000000000e+00 -2.0895665500531320e-19 -5.7216376769923909e-19 -2.0895665500531320e-19 -2.7469825621633005e-03 -2.1634580869480911e-03 -5.7216376769923909e-19 -2.1634580869480911e-03 4.9630240578140026e-03  0.0000000000000000e+00 -1.9958387781727334e-19 -5.3363734431550206e-19 -1.9958387781727334e-19 -2.84200322071022