<?xml version="1.0"?>
<VTKFile type="UnstructuredGrid"  version="0.1"  >
<UnstructuredGrid>
<Piece  NumberOfPoints="10381" NumberOfCells="20287">
<Points>
<DataArray  type="Float64"  NumberOfComponents="3"  format="ascii">4.1030663791399e-23 9.999999999999972e-07 7.792863567657969e-08  4.104251851164359e-23 9.999999999999972e-07 7.782185784922752e-08  4.102570586031411e-23 9.998971199776666e-07 7.787041272742203e-08  4.101807295283632e-23 9.999999999999972e-07 7.804204386829804e-08  4.101297964887764e-23 9.998966883850874e-07 7.798460865700906e-08  4.100632950817176e-23 9.999999999999972e-07 7.814781941432872e-08  4.100056719860206e-23 9.998959274419311e-07 7.809564912672445e-08  4.09940620323202e-23 9.999999999999972e-07 7.825831501367647e-08  4.098897787265661e-23 9.998985622489619e-07 7.820267130177402e-08  4.098149454428939e-23 9.999999999999972e-07 7.837151288250154e-08  4.097632840406858e-23 9.998949945174192e-07 7.831303985427029e-08  4.09696340823631e-23 9.999999999999972e-07 7.84783424263249e-08  4.09641708074395e-23 9.99896807583321e-07 7.842435881546902e-08  4.095798190658886e-23 9.999999999999972e-07 7.858329589527483e-08  4.095201735866943e-23 9.998942901159937e-07 7.853130988284607e-08  4.094618351930334e-23 9.999999999999972e-07 7.868956632044003e-08  4.094041444545889e-23 9.998945965684769e-07 7.863612608655197e-08  4.093433307498163e-23 9.999999999999972e-07 7.879630563370293e-08  4.092861134746824e-23 9.998940855879984e-07 7.874192796149852e-08  4.092268089920738e-23 9.999999999999972e-07 7.890125910265286e-08  4.091602955555987e-23 9.998911792782595e-07 7.885234835845994e-08  4.091087249431729e-23 9.999999999999972e-07 7.900761975837853e-08  4.090464447275328e-23 9.998941567042928e-07 7.895787349386398e-08  4.089801143692074e-23 9.999999999999972e-07 7.912346186497589e-08  4.089268268541987e-23 9.99895212985851e-07 7.906667197737706e-08  4.088554679564634e-23 9.999999999999972e-07 7.923573337257334e-08  4.087954568246275e-23 9.998931136873578e-07 7.918290028212871e-08  4.087367255481885e-23 9.999999999999972e-07 7.934268702570532e-08  4.086776212829414e-23 9.998929927091906e-07 7.928891612428725e-08  4.086106974004979e-23 9.999999999999972e-07 7.945620308950084e-08  4.085537864543617e-23 9.998911710249765e-07 7.939863493764251e-08  4.084883759093648e-23 9.999999999999972e-07 7.956638049387814e-08  4.084357067161895e-23 9.998955228286238e-07 7.950934351425628e-08  4.083683060288736e-23 9.999999999999972e-07 7.967452982768584e-08  4.083165059013727e-23 9.998944804633205e-07 7.961566769799125e-08  4.082511126934015e-23 9.999999999999972e-07 7.978008820007833e-08  4.081884550029551e-23 9.998938012331319e-07 7.973032646348223e-08  4.081317159636978e-23 9.999999999999972e-07 7.988763121355893e-08  4.08068006315587e-23 9.998938730067422e-07 7.983888876980224e-08  4.080040102481433e-23 9.999999999999972e-07 8.000265829615571e-08  4.079540331770567e-23 9.998951116323047e-07 7.994278527220779e-08  4.078683595852034e-23 9.999999999999972e-07 8.012484155116946e-08  4.078194953170691e-23 9.998920003920189e-07 8.006085496314339e-08  4.077518378274609e-23 9.999999999999972e-07 8.022979502011942e-08  4.076884940753025e-23 9.998907979899197e-07 8.017764798976534e-08  4.076353160697184e-23 9.999999999999972e-07 8.033474848906937e-08  4.075700442008041e-23 9.998907662463965e-07 8.028430640837273e-08  4.075184663215026e-23 9.999999999999972e-07 8.043999738557396e-08  4.074616617691683e-23 9.998949548320778e-07 8.038611720979971e-08  4.073988277536462e-23 9.999999999999972e-07 8.054775822749744e-08  4.073405826287652e-23 9.998942811716886e-07 8.049450194373086e-08  4.072823059959036e-23 9.999999999999972e-07 8.06527116964474e-08  4.072171484490231e-23 9.998923023234548e-07 8.060370272067525e-08  4.071653560716421e-23 9.999999999999972e-07 8.075805082351248e-08  4.071045512145362e-23 9.99894293822677e-07 8.070711279255313e-08  4.070439235453762e-23 9.999999999999972e-07 8.086742751952081e-08  4.069877415655103e-23 9.998955466731232e-07 8.081357842136463e-08  4.069170064328183e-23 9.999999999999972e-07 8.09817442916853e-08  4.068641558894424e-23 9.998957056636689e-07 8.092505349284776e-08  4.067944221062225e-23 9.999999999999972e-07 8.109215843720101e-08  4.067428819204027e-23 9.998965725053369e-07 8.103515421487124e-08  4.066699834608413e-23 9.999999999999972e-07 8.120424280459483e-08  4.066165813444065e-23 9.998920546338537e-07 8.114439778878674e-08  4.065521366093099e-23 9.999999999999972e-07 8.131038981192355e-08  4.064867940504563e-23 9.998921251794205e-07 8.126137033608775e-08  4.064284045154345e-23 9.999999999999972e-07 8.142183777429778e-08  4.06375332521704e-23 9.998946432421975e-07 8.136428401873578e-08  4.063055613144389e-23 9.999999999999972e-07 8.153248509314352e-08  4.062546501478935e-23 9.998951042191827e-07 8.147344601446554e-08  4.061872667858015e-23 9.999999999999972e-07 8.163903533216178e-08  4.061366521144374e-23 9.998972241056168e-07 8.15818490808004e-08  4.060690729983667e-23 9.999999999999972e-07 8.174549483157161e-08  4.060149892498071e-23 9.998962517077913e-07 8.169046084933768e-08  4.059506767206257e-23 9.999999999999972e-07 8.185213671803489e-08  4.058867521359565e-23 9.998929403253023e-07 8.180265519047916e-08  4.058255359922289e-23 9.999999999999972e-07 8.196485346559018e-08  4.057706907047637e-23 9.998963277795014e-07 8.191058148833271e-08  4.057046508519643e-23 9.999999999999972e-07 8.207373712012029e-08  4.056482673151468e-23 9.998973225551928e-07 8.202184545039608e-08  4.055881290942217e-23 9.999999999999972e-07 8.217869058907023e-08  4.055312316660336e-23 9.998962721109075e-07 8.212621134725779e-08  4.054692867124326e-23 9.999999999999972e-07 8.22857342903385e-08  4.054145805328846e-23 9.998965051496069e-07 8.223151438591359e-08  4.053492168319415e-23 9.999999999999972e-07 8.23938836241462e-08  4.052939781855432e-23 9.998970080987735e-07 8.234064627238962e-08  4.052291469514503e-23 9.999999999999972e-07 8.25020329579539e-08  4.051698063047124e-23 9.998955692626972e-07 8.245105152356116e-08  4.051023326882401e-23 9.999999999999972e-07 8.261625709166163e-08  4.050539263000308e-23 9.998952267049353e-07 8.255508439498012e-08  4.049837738311599e-23 9.999999999999972e-07 8.272304541657522e-08  4.049289100178064e-23 9.998961894337433e-07 8.266865178019633e-08  4.048672520734173e-23 9.999999999999972e-07 8.282799888552517e-08  4.048129094908083e-23 9.998963519977135e-07 8.277329833019915e-08  4.047401337266011e-23 9.999999999999972e-07 8.294249691339592e-08  4.046955391488171e-23 9.998958242965198e-07 8.287848843469669e-08  4.046227964853447e-23 9.999999999999972e-07 8.304818490459571e-08  4.045641019319852e-23 9.998932541035284e-07 8.299430636185461e-08  4.045029570002399e-23 9.999999999999972e-07 8.315612671668809e-08  4.044482124117367e-23 9.998955466397812e-07 8.310098289814892e-08  4.043863081692724e-23 9.999999999999972e-07 8.32611946430238e-08  4.043215482966676e-23 9.99895149297924e-07 8.321467444857694e-08  4.042663669350641e-23 9.999999999999972e-07 8.336922810256117e-08  4.042092098398427e-23 9.998959251971341e-07 8.331663583424619e-08  4.041498198532002e-23 9.999999999999972e-07 8.347420438145189e-08  4.040862818303352e-23 9.998943386396115e-07 8.34257729842859e-08  4.040332980954577e-23 9.999999999999972e-07 8.357915785040183e-08  4.039737495930887e-23 9.99895277899595e-07 8.35280722726155e-08  4.039034189928916e-23 9.999999999999972e-07 8.36961425459858e-08  4.038526176305936e-23 9.998955324685156e-07 8.363743281376725e-08  4.037705115455894e-23 9.999999999999972e-07 8.381585493201481e-08  4.037238783441592e-23 9.998970597428923e-07 8.375491812862674e-08  4.036531172928689e-23 9.999999999999972e-07 8.392159427457622e-08  4.035918228843448e-23 9.998950998607194e-07 8.387190323037629e-08  4.035305455846802e-23 9.999999999999972e-07 8.403199705444121e-08  4.034760383881054e-23 9.998949316884551e-07 8.397602446093589e-08  4.03406089399187e-23 9.999999999999972e-07 8.41440972205635e-08  4.03354016006036e-23 9.99896096566077e-07 8.408709732944137e-08  4.032882474693606e-23 9.999999999999972e-07 8.425023979481445e-08  4.03235156959192e-23 9.998972345481479e-07 8.419529402332755e-08  4.031696010831147e-23 9.999999999999972e-07 8.43571069589916e-08  4.031144544255094e-23 9.998981989007331e-07 8.430497755305596e-08  4.030516574041848e-23 9.999999999999972e-07 8.446334118068755e-08  4.029878196837402e-23 9.998955128637661e-07 8.441635395125759e-08  4.029331127670425e-23 9.999999999999972e-07 8.457011669741967e-08  4.028696074622158e-23 9.998933728430822e-07 8.452069003393542e-08  4.028072544806718e-23 9.999999999999972e-07 8.468347976373977e-08  4.027530455789317e-23 9.998953367656587e-07 8.462764356733667e-08  4.026796580092003e-23 9.999999999999972e-07 8.479840844801432e-08  4.026303403560523e-23 9.998960576486677e-07 8.473888748955289e-08  4.02553989746028e-23 9.999999999999972e-07 8.491160035665338e-08  4.02500341123569e-23 9.998953800444774e-07 8.485530278435658e-08  4.024338379011019e-23 9.999999999999972e-07 8.501982351746076e-08  4.023733227424632e-23 9.998931247739058e-07 8.496745550054847e-08  4.023083069360232e-23 9.999999999999972e-07 8.513289175897113e-08  4.022591421807489e-23 9.998958333344035e-07 8.507300876808409e-08  4.021893823130293e-23 9.999999999999972e-07 8.52400095365313e-08  4.021318929689361e-23 9.998929690801102e-07 8.518476041437148e-08  4.020699882426747e-23 9.999999999999972e-07 8.534755015468311e-08  4.020141408891328e-23 9.998958559441525e-07 8.529370892295859e-08  4.019422893452352e-23 9.999999999999972e-07 8.54625710960679e-08  4.018869933727793e-23 9.998971765342856e-07 8.540955381454585e-08  4.018216386038509e-23 9.999999999999972e-07 8.557124362285594e-08  4.017638372451043e-23 9.998962952312419e-07 8.551960168964318e-08  4.016935815357094e-23 9.999999999999972e-07 8.568658717572881e-08  4.016424275471094e-23 9.998972682656653e-07 8.562993085819645e-08  4.015762717544473e-23 9.999999999999972e-07 8.579225043316467e-08  4.015213005645381e-23 9.99897
[...]
<PointData  Tensors="f_45"> 
<DataArray  type="Float64"  Name="f_45"  NumberOfComponents="9" format="ascii">0.0000000000000000e+00 -1.7950578827205645e-19 -2.0370046198746607e-19 -1.7950578827205645e-19 -5.3769782381596831e-04 -4.5226468669036978e-06 -2.0370046198746607e-19 -4.5226468669036978e-06 9.6450502419964093e-04  0.0000000000000000e+00 -1.7852043652887786e-19 -2.0340066609456413e-19 -1.7852043652887786e-19 -5.4873338081792204e-04 -5.2350291200000911e-06 -2.0340066609456413e-19 -5.2350291200000911e-06 9.8646569298115831e-04  0.0000000000000000e+00 -1.7905074155105956e-19 -2.0602527469578885e-19 -1.7905074155105956e-19 -5.5576061400781798e-04 -1.9781960327757283e-05 -2.0602527469578885e-19 -1.9781960327757283e-05 1.0021266830276634e-03  0.0000000000000000e+00 -1.8032534849027184e-19 -2.0409971843042652e-19 -1.8032534849027184e-19 -5.2488899651920162e-04 -5.1234231693476931e-06 -2.0409971843042652e-19 -5.1234231693476931e-06 9.4292312459529439e-04  0.0000000000000000e+00 -1.7992198741707458e-19 -2.0631749727693686e-19 -1.7992198741707458e-19 -5.4331024235799888e-04 -1.9746115547799011e-05 -2.0631749727693686e-19 -1.9746115547799011e-05 9.7931724473864336e-04  0.0000000000000000e+00 -1.8113480637330949e-19 -2.0428281750743315e-19 -1.8113480637330949e-19 -5.1288382321046020e-04 -4.7049582220239263e-06 -2.0428281750743315e-19 -4.7049582220239263e-06 9.2047140403906280e-04  0.0000000000000000e+00 -1.8080416200678603e-19 -2.0666780559877459e-19 -1.8080416200678603e-19 -5.3124621171725926e-04 -1.9669489710707421e-05 -2.0666780559877459e-19 -1.9669489710707421e-05 9.5782521486960934e-04  0.0000000000000000e+00 -1.8204998252460795e-19 -2.0475794310437829e-19 -1.8204998252460795e-19 -5.0119922425932869e-04 -5.0232682091376310e-06 -2.0475794310437829e-19 -5.0232682091376310e-06 9.0022293906219910e-04  0.0000000000000000e+00 -1.8165081994646162e-19 -2.0699722534385348e-19 -1.8165081994646162e-19 -5.1954404778766774e-04 -1.9754568676047310e-05 -2.0699722534385348e-19 -1.9754568676047310e-05 9.3663515804655220e-04  0.0000000000000000e+00 -1.8291315999247572e-19 -2.0503424003196634e-19 -1.8291315999247572e-19 -4.8932059378735697e-04 -4.9398157986773109e-06 -2.0503424003196634e-19 -4.9398157986773109e-06 8.7793891348233392e-04  0.0000000000000000e+00 -1.8256785277032042e-19 -2.0742055276673356e-19 -1.8256785277032042e-19 -5.0781307738058357e-04 -2.0065880223794174e-05 -2.0742055276673356e-19 -2.0065880223794174e-05 9.1538775870514844e-04  0.0000000000000000e+00 -1.8382870314833099e-19 -2.0544351535846381e-19 -1.8382870314833099e-19 -4.7769977807137084e-04 -4.9902252468754818e-06 -2.0544351535846381e-19 -4.9902252468754818e-06 8.5709716843747580e-04  0.0000000000000000e+00 -1.8340547366104049e-19 -2.0777710420638267e-19 -1.8340547366104049e-19 -4.9602585693149775e-04 -2.0434022297605715e-05 -2.0777710420638267e-19 -2.0434022297605715e-05 8.9419807730601697e-04  0.0000000000000000e+00 -1.8463568719089180e-19 -2.0572410790817985e-19 -1.8463568719089180e-19 -4.6611162509056840e-04 -5.0774698008835551e-06 -2.0572410790817985e-19 -5.0774698008835551e-06 8.3585190022482055e-04  0.0000000000000000e+00 -1.8428161868053059e-19 -2.0811118481953852e-19 -1.8428161868053059e-19 -4.8412159425520901e-04 -2.0294107847831478e-05 -2.0811118481953852e-19 -2.0294107847831478e-05 8.7280867929576307e-04  0.0000000000000000e+00 -1.8547639027902605e-19 -2.0606686389551598e-19 -1.8547639027902605e-19 -4.5439862951543393e-04 -5.2071565028001368e-06 -2.0606686389551598e-19 -5.2071565028001368e-06 8.1490931373529420e-04  0.0000000000000000e+00 -1.8511855319752099e-19 -2.0849526967048267e-19 -1.8511855319752099e-19 -4.7282824704931406e-04 -2.0587539424623060e-05 -2.0849526967048267e-19 -2.0587539424623060e-05 8.5277065458677799e-04  0.0000000000000000e+00 -1.8643106446988287e-19 -2.0653878845888608e-19 -1.8643106446988287e-19 -4.4340959662974802e-04 -5.3056157452331555e-06 -2.0653878845888608e-19 -5.3056157452331555e-06 7.9502691819656392e-04  0.0000000000000000e+00 -1.8600875048941221e-19 -2.0885006604097447e-19 -1.8600875048941221e-19 -4.6186722756290458e-04 -2.0573437515047738e-05 -2.0885006604097447e-19 -2.0573437515047738e-05 8.3219291335835449e-04  0.0000000000000000e+00 -1.8722621345506448e-19 -2.0676732190800925e-19 -1.8722621345506448e-19 -4.3091715439053617e-04 -5.1864437642401202e-06 -2.0676732190800925e-19 -5.1864437642401202e-06 7.7256558185122867e-04  0.0000000000000000e+00 -1.8688891672260828e-19 -2.0920578028564998e-19 -1.8688891672260828e-19 -4.4930552059844103e-04 -2.0506647576489157e-05 -2.0920578028564998e-19 -2.0506647576489157e-05 8.1031709915163304e-04  0.0000000000000000e+00 -1.8808799014584394e-19 -2.0711653315650411e-19 -1.8808799014584394e-19 -4.1842994788835966e-04 -5.1817259575413327e-06 -2.0711653315650411e-19 -5.1817259575413327e-06 7.5085425282224298e-04  0.0000000000000000e+00 -1.8778511549352822e-19 -2.0957283691846535e-19 -1.8778511549352822e-19 -4.3792223632787484e-04 -2.0347830297107205e-05 -2.0957283691846535e-19 -2.0347830297107205e-05 7.8971927209560574e-04  0.0000000000000000e+00 -1.8916083760401394e-19 -2.0770435706700417e-19 -1.8916083760401394e-19 -4.0678848278380691e-04 -5.5612035048462878e-06 -2.0770435706700417e-19 -5.5612035048462878e-06 7.2971642514940271e-04  0.0000000000000000e+00 -1.8877818216618793e-19 -2.0997031127364202e-19 -1.8877818216618793e-19 -4.2639137817010307e-04 -1.9981277994784308e-05 -2.0997031127364202e-19 -1.9981277994784308e-05 7.6819228118701053e-04  0.0000000000000000e+00 -1.9011238795084851e-19 -2.0810134970550297e-19 -1.9011238795084851e-19 -3.9440328555413149e-04 -5.7884825226316550e-06 -2.0810134970550297e-19 -5.7884825226316550e-06 7.0688664632802885e-04  0.0000000000000000e+00 -1.8973188039728357e-19 -2.1040530605489387e-19 -1.8973188039728357e-19 -4.1321298777731219e-04 -2.0003557635092041e-05 -2.1040530605489387e-19 -2.0003557635092041e-05 7.4562520085878900e-04  0.0000000000000000e+00 -1.9107376501892163e-19 -2.0851488931837615e-19 -1.9107376501892163e-19 -3.8302276662890685e-04 -5.4080632772149842e-06 -2.0851488931837615e-19 -5.4080632772149842e-06 6.8639800365783940e-04  0.0000000000000000e+00 -1.9063545127568061e-19 -2.1080760244163834e-19 -1.9063545127568061e-19 -4.0151867141304833e-04 -2.0112795022002163e-05 -2.1080760244163834e-19 -2.0112795022002163e-05 7.2468225126552893e-04  0.0000000000000000e+00 -1.9199149623258769e-19 -2.0879618348464386e-19 -1.9199149623258769e-19 -3.6992484177671126e-04 -4.8580945084746867e-06 -2.0879618348464386e-19 -4.8580945084746867e-06 6.6293498574546909e-04  0.0000000000000000e+00 -1.9161643343881890e-19 -2.1127998461237785e-19 -1.9161643343881890e-19 -3.8987707767565948e-04 -2.0338018594502617e-05 -2.1127998461237785e-19 -2.0338018594502617e-05 7.0342808743827578e-04  0.0000000000000000e+00 -1.9300728025130829e-19 -2.0926585058694940e-19 -1.9300728025130829e-19 -3.5807141163319515e-04 -4.7563776561178817e-06 -2.0926585058694940e-19 -4.7563776561178817e-06 6.4144702154011340e-04  0.0000000000000000e+00 -1.9262438289428020e-19 -2.1176955482542297e-19 -1.9262438289428020e-19 -3.7804273188631027e-04 -2.0403274930969820e-05 -2.1176955482542297e-19 -2.0403274930969820e-05 6.8212493872565948e-04  0.0000000000000000e+00 -1.9410450105782134e-19 -2.0983938886377485e-19 -1.9410450105782134e-19 -3.4811159351091242e-04 -4.7786895638063491e-06 -2.0983938886377485e-19 -4.7786895638063491e-06 6.2200875382129603e-04  0.0000000000000000e+00 -1.9367540322630674e-19 -2.1227918254485231e-19 -1.9367540322630674e-19 -3.6678639440416820e-04 -2.0335143810484752e-05 -2.1227918254485231e-19 -2.0335143810484752e-05 6.6125200121060256e-04  0.0000000000000000e+00 -1.9508375211851222e-19 -2.1036373465056298e-19 -1.9508375211851222e-19 -3.3530081549115271e-04 -5.2437636036129773e-06 -2.1036373465056298e-19 -5.2437636036129773e-06 6.0007298283369832e-04  0.0000000000000000e+00 -1.9467177547006005e-19 -2.1269032867746645e-19 -1.9467177547006005e-19 -3.5463819575826659e-04 -1.9974155137142481e-05 -2.1269032867746645e-19 -1.9974155137142481e-05 6.3928328352573526e-04  0.0000000000000000e+00 -1.9593764419294611e-19 -2.1072023273668911e-19 -1.9593764419294611e-19 -3.2216336808441173e-04 -5.5003764449910713e-06 -2.1072023273668911e-19 -5.5003764449910713e-06 5.7746205622359950e-04  0.0000000000000000e+00 -1.9564391235691971e-19 -2.1310231025808699e-19 -1.9564391235691971e-19 -3.4227792193945782e-04 -1.9614618228185685e-05 -2.1310231025808699e-19 -1.9614618228185685e-05 6.1755122261147183e-04  0.0000000000000000e+00 -1.9710704485461053e-19 -2.1132039261868163e-19 -1.9710704485461053e-19 -3.1104693133077914e-04 -5.1563090403740877e-06 -2.1132039261868163e-19 -5.1563090403740877e-06 5.5677922402627450e-04  0.0000000000000000e+00 -1.9669172980880557e-19 -2.1367431499842173e-19 -1.9669172980880557e-19 -3.3113278287532450e-04 -1.9842691398385627e-05 -2.1367431499842173e-19 -1.9842691398385627e-05 5.9737845740625575e-04  0.0000000000000000e+00 -1.9828457518130872e-19 -2.1196984179612522e-19 -1.9828457518130872e-19 -2.9933231080435662e-04 -5.4923807156495791e-06 -2.1196984179612522e-19 -5.4923807156495791e-06 5.3487939588151457e-04  0.0000000000000000e+00 -1.9781192003497007e-19 -2.1430331517844355e-19 -1.9781192003497007e-19 -3.1860792975254708e-04 -2.0244488365057793e-05 -2.1430331517844355e-19 -2.0244488365057793e-05 5.7520151711325641e-04  0.0000000000000000e+00 -1.9930508904469605e-19 -2.1241382401304391e-19 -1.9930508904469605e-19 -2.8763953512351453e-04 -5.2199426729212707e-06 -2.1241382401304391e-19 -5.2199426729212707e-06 5.1334562545389648e-04  0.0000000000000000e+00 -1.9883373353996594e-19 -2.1479882668108533e-19 -1.9883373353996594e-19 -3.0637659308987162e-04 -2.0289360339454020e-05 -2.1479882668108533e-19 -2.0289360339454020e-05 5.5339942249590371e-04  0.0000000000000000e+00 -2.0018135411508780e-19 -2.1274807389240105e-19 -2.0018135411508780e-19 -2.7511273603401080e-04 -5.0365538217797907e-06 -2.1274807389240105e-19 -5.0365538217797907e-06 4.9142152641612371e-04  0.0000000000000000e+00 -1.9983858639523135e-19 -2.1524981638311433e-19 -1.9983858639523135e-19 -2.9483263233047902e-04 -1.9953346773950216e-05 -2.1524981638311433e-19 -1.9953346773950216e-05 5.3254997730603211e-04  0.0000000000000000e+00 -2.0122223041521575e-19 -2.1329952475776252e-19 -2.0122223041521575e-19 -2.6447252335536065e-04 -5.1958876698115217e-06 -2.1329952475776252e-19 -5.1958876698115217e-06 4.7164594121889604e-04  0.0000000000000000e+00 -2.0082539518208223e-19 -2.1569387979759257e-19 -2.0082539518208223e-19 -2.8333971552898260e-04 -1.9745922756302536e-05 -2.1569387979759257e-19 -1.9745922756302536e-05 5.1169467711232892e-04  0.0000000000000000e+00 -2.0234152749475999e-19 -2.1393705231365352e-19 -2.0234152749475999e-19 -2.5290781877202617e-04 -5.2693589841492042e-06 -2.1393705231365352e-19 -5.2693589841492042e-06 4.5125550581785067e-04  0.0000000000000000e+00 -2.0190901072450064e-19 -2.1624514451232044e-19 -2.0190901072450064e-19 -2.7217533805654764e-04 -1.9538097385879825e-05 -2.1624514451232044e-19 -1.9538097385879825e-05 4.9135597042332358e-04  0.0000000000000000e+00 -2.0335435618149451e-19 -2.1441027106516051e-19 -2.0335435618149451e-19 -2.4122048020229814e-04 -4.9849763976278703e-06 -2.1441027106516051e-19 -4.9849763976278703e-06 4.3041618400915696e-04  0.0000000000000000e+00 -2.0301193712419634e-19 -2.1685050139958130e-19 -2.0301193712419634e-19 -2.6052091031647230e-04 -1.9555086580566747e-05 -2.1685050139958130e-19 -1.9555086580566747e-05 4.7070414881107735e-04  0.0000000000000000e+00 -2.0438324541398552e-19 -2.1493426756959027e-19 -2.0438324541398552e-19 -2.2985059237297297e-04 -4.9191179249577514e-06 -2.1493426756959027e-19 -4.9191179249577514e-06 4.1008267431506167e-04  0.0000000000000000e+00 -2.0404261387814224e-19 -2.1736588314526603e-19 -2.0404261387814224e-19 -2.4946414436673268e-04 -1.9516604699544433e-05 -2.1736588314526603e-19 -1.9516604699544433e-05 4.5044161699648493e-04  0.0000000000000000e+00 -2.0549920007903607e-19 -2.1554434928653817e-19 -2.0549920007903607e-19 -2.1793215181833563e-04 -4.9598808516641999e-06 -2.1554434928653817e-19 -4.9598808516641999e-06 3.8896971102623043e-04  0.0000000000000000e+00 -2.0514184800325085e-19 -2.1791346944583481e-19 -2.0514184800325085e-19 -2.3835936127293239e-04 -1.9248212895524807e-05 -2.1791346944583481e-19 -1.9248212895524807e-05 4.2993601376172549e-04  0.0000000000000000e+00 -2.0665830877661173e-19 -2.1617203140859805e-19 -2.0665830877661173e-19 -2.0585621306251975e-04 -5.1216237778851100e-06 -2.1617203140859805e-19 -5.1216237778851100e-06 3.6699695630808217e-04  0.0000000000000000e+00 -2.0627738365154784e-19 -2.1853763032960611e-19 -2.0627738365154784e-19 -2.2640838990667752e-04 -1.9277918811103747e-05 -2.1853763032960611e-19 -1.9277918811103747e-05 4.0871352176778219e-04  0.0000000000000000e+00 -2.0782476666383959e-19 -2.1686029693978480e-19 -2.0782476666383959e-19 -1.9450707343076536e-04 -5.4779332183359304e-06 -2.1686029693978480e-19 -5.4779332183359304e-06 3.4632085013089591e-04  0.0000000000000000e+00 -2.0738501052389742e-19 -2.1914297589910224e-19 -2.0738501052389742e-19 -2.1458739052603967e-04 -1.9356776238858306e-05 -2.1914297589910224e-19 -1.9356776238858306e-05 3.8768651197759339e-04  0.0000000000000000e+00 -2.0909037037183257e-19 -2.1752006737104269e-19 -2.0909037037183257e-19 -1.8434105366323008e-04 -4.6430174280093144e-06 -2.1752006737104269e-19 -4.6430174280093144e-06 3.2691093986518462e-04  0.0000000000000000e+00 -2.0861557677483205e-19 -2.1989388254622362e-19 -2.0861557677483205e-19 -2.0342454349982816e-04 -1.9518851103246140e-05 -2.1989388254622362e-19 -1.9518851103246140e-05 3.6755873597124508e-04  0.0000000000000000e+00 -2.1012812978288775e-19 -2.1803411221048719e-19 -2.1012812978288775e-19 -1.7086746130564505e-04 -4.6943139632794904e-06 -2.1803411221048719e-19 -4.6943139632794904e-06 3.0390035143822662e-04  0.0000000000000000e+00 -2.0976246246005155e-19 -2.2057233444904901e-19 -2.0976246246005155e-19 -1.9162344580261193e-04 -1.9866979853002328e-05 -2.2057233444904901e-19 -1.9866979853002328e-05 3.4662282794294650e-04  0.0000000000000000e+00 -2.1124092346172648e-19 -2.1867235471753009e-19 -2.1124092346172648e-19 -1.5984267630288451e-04 -4.7646965735717418e-06 -2.1867235471753009e-19 -4.7646965735717418e-06 2.8418604729403096e-04  0.0000000000000000e+00 -2.1083619197390415e-19 -2.2105057358140544e-19 -2.1083619197390415e-19 -1.7985715892127613e-04 -1.9302783442228856e-05 -2.2105057358140544e-19 -1.9302783442228856e-05 3.2525753284204839e-04  0.0000000000000000e+00 -2.1242161638751601e-19 -2.1926170425366067e-19 -2.1242161638751601e-19 -1.4837412165403176e-04 -4.4362360201151581e-06 -2.1926170425366067e-19 -4.4362360201151581e-06 2.6272171827562094e-04  0.0000000000000000e+00 -2.1200259151383478e-19 -2.2170844080112054e-19 -2.1200259151383478e-19 -1.6870242103749476e-04 -1.9278908900009909e-05 -2.2170844080112054e-19 -1.9278908900009909e-05 3.0498964017169726e-04  0.0000000000000000e+00 -2.1359342333457070e-19 -2.1993070589329640e-19 -2.1359342333457070e-19 -1.3738558242931920e-04 -4.5857402121946903e-06 -2.1993070589329640e-19 -4.5857402121946903e-06 2.4237643548503674e-04  0.0000000000000000e+00 -2.1316289857112222e-19 -2.2233748792436812e-19 -2.1316289857112222e-19 -1.5745662290736476e-04 -1.9111016170189774e-05 -2.2233748792436812e-19 -1.9111016170189774e-05 2.8450929933736930e-04  0.0000000000000000e+00 -2.1486596633272456e-19 -2.2077227431938569e-19 -2.1486596633272456e-19 -1.2720030425778845e-04 -4.6707261456820617e-06 -2.2077227431938569e-19 -4.6707261456820617e-06 2.2425743775670532e-04  0.0000000000000000e+00 -2.1441320771487877e-19 -2.2305612063553309e-19 -2.1441320771487877e-19 -1.4644714850302586e-04 -1.8867782544513267e-05 -2.2305612063553309e-19 -1.8867782544513267e-05 2.6440846104967245e-04  0.0000000000000000e+00 -2.1591796239207669e-19 -2.2132639292482654e-19 -2.1591796239207669e-19 -1.1438985245960622e-04 -4.7245519203111733e-06 -2.2132639292482654e-19 -4.7245519203111733e-06 2.0237037154607042e-04  0.0000000000000000e+00 -2.1563903567990479e-19 -2.2378760169395195e-19 -2.1563903567990479e-19 -1.3540290302388363e-04 -1.8934329748514164e-05 -2.2378760169395195e-19 -1.8934329748514164e-05 2.4432575898546621e-04  0.0000000000000000e+00 -2.1714233515033999e-19 -2.2207218300848332e-19 -2.1714233515033999e-19 -1.0286220364046493e-04 -4.8277667694756656e-06 -2.2207218300848332e-19 -4.8277667694756656e-06 1.8201491400955327e-04  0.0000000000000000e+00 -2.1682128984885389e-19 -2.2443105793948098e-19 -2.1682128984885389e-19 -1.2413891571443772e-04 -1.8761259679198001e-05 -2.2443105793948098e-19 -1.8761259679198001e-05 2.2370179130401727e-04  0.0000000000000000e+00 -2.1837577794951229e-19 -2.2281400619226549e-19 -2.1837577794951229e-19 -9.1694432554304935e-05 -5.0318525134994285e-06 -2.2281400619226549e-19 -5.0318525134994285e-06 1.6158273976880276e-04  0.0000000000000000e+00 -2.1803974154612137e-19 -2.2512238975786048e-19 -2.1803974154612137e-19 -1.1249945445033211e-04 -1.8604964941036454e-05 -2.2512238975786048e-19 -1.8604964941036454e-05 2.0287917195623269e-04  0.0000000000000000e+00 -2.1956084271823505e-19 -2.2345240743489482e-19 -2.1956084271823505e-19 -8.1360591285111768e-05 -4.5903941630079344e-06 -2.2345240743489482e-19 -4.5903941630079344e-06 1.4228400059087778e-04  0.0000000000000000e+00 -2.1921405382844802e-19 -2.2582605186968005e-19 -2.1921405382844802e-19 -1.0138607834374712e-04 -1.8589314597129778e-05 -2.2582605186968005e-19 -1.8589314597129778e-05 1.8331861680934866e-04  0.0000000000000000e+00 -2.2076273969706476e-19 -2.2415517125146268e-19 -2.2076273969706476e-19 -7.0430668422153078e-05 -4.5790746787249651e-06 -2.2415517125146268e-19 -4.5790746787249651e-06 1.2238513299978079e-04  0.0000000000000000e+00 -2.2041438727130118e-19 -2.2656375654883684e-19 -2.2041438727130118e-19 -9.0777859580401692e-05 -1.8745589784152568e-05 -2.2656375654883684e-19 -1.8745589784152568e-05 1.6406386875871440e-04  0.0000000000000000e+00 -2.2210875601171860e-19 -2.2503174692890577e-19 -2.2210875601171860e-19 -5.9835282729095329e-05 -4.6043660977186969e-06 -2.2503174692890577e-19 -4.6043660977186969e-06 1.0328247375564281e-04  0.0000000000000000e+00 -2.2170335157308415e-19 -2.2734121154317360e-19 -2.2170335157308415e-19 -8.0033690325141639e-05 -1.8442544843882454e-05 -2.2734121154317360e-19 -1.8442544843882454e-05 1.4471125687840581e-04  0.0000000000000000e+00 -2.2326673078039258e-19 -2.2574132860143973e-19 -2.2326673078039258e-19 -4.7581784221866208e-05 -4.9299736453996465e-06 -2.2574132860143973e-19 -4.9299736453996465e-06 8.2300228228489772e-05  0.0000000000000000e+00 -2.2293944176463332e-19 -2.2808631177855223e-19 -2.2293944176463332e-19 -6.8785183240345341e-05 -1.8388491065267416e-05 -2.2808631177855223e-19 -1.8388491065267416e-05 1.2472596861802279e-04  0.0000000000000000e+00 -2.2458703769083895e-19 -2.2653659597333143e-19 -2.2458703769083895e-19 -3.7712365259146883e-05 -4.7070857577965575e-06 -2.2653659597333143e-19 -4.7070857577965575e-06 6.3418313561861231e-05  0.0000000000000000e+00 -2.2416346091236853e-19 -2.2881517019305425e-19 -2.2416346091236853e-19 -5.7819760308262187e-05 -1.8296463688859311e-05 -2.2881517019305425e-19 -1.8296463688859311e-05 1.0502457766337882e-04  0.0000000000000000e+00 -2.2588211861904805e-19 -2.2729257067074123e-19 -2.2588211861904805e-19 -2.6060605238992334e-05 -4.5558312760006243e-06 -2.2729257067074123e-19 -4.5558312760006243e-06 4.2357388024398970e-05  0.0000000000000000e+00 -2.2545120287179576e-19 -2.2961821021228561e-19 -2.2545120287179576e-19 -4.7133348977835688e-05 -1.8274689206666850e-05 -2.2961821021228561e-19 -1.8274689206666850e-05 8.5650101388396209e-05  0.0000000000000000e+00 -2.2710896389271241e-19 -2.2800337504617793e-19 -2.2710896389271241e-19 -1.5217970486121687e-05 -4.2146885571559993e-06 -2.2800337504617793e-19 -4.2146885571559993e-06 2.2900872323021462e-05  0.0000000000000000e+00 -2.2673427240790881e-19 -2.3039824836677248e-19 -2.2673427240790881e-19 -3.64183508604089