<?xml version="1.0"?>
<VTKFile type="UnstructuredGrid"  version="0.1"  >
<UnstructuredGrid>
<Piece  NumberOfPoints="10500" NumberOfCells="20574">
<Points>
<DataArray  type="Float64"  NumberOfComponents="3"  format="ascii">4.060954603629186e-23 9.664837448680977e-07 4.820547207463946e-08  4.058356772359489e-23 9.665231817210039e-07 4.84789007663092e-08  4.062311207542363e-23 9.667023823570343e-07 4.830191754601854e-08  4.117583390641118e-23 9.668078688549436e-07 4.342892837977771e-08  4.113559651713327e-23 9.666129750039054e-07 4.359646071145624e-08  4.114754043066672e-23 9.66827597057266e-07 4.370350155573971e-08  4.115565794404773e-23 9.665468133852883e-07 4.334960182328618e-08  4.163927399695612e-23 9.672351824282232e-07 3.96819447148838e-08  4.161509772263815e-23 9.673116841586142e-07 3.99762069652941e-08  4.16557598346807e-23 9.674435308043456e-07 3.974180186573969e-08  4.054103932234444e-23 9.668484844120507e-07 4.918726524140444e-08  4.058178095045444e-23 9.670547961638921e-07 4.90266090308965e-08  4.057509323459371e-23 9.668314134701187e-07 4.886346392643973e-08  4.06475262806997e-23 9.666684253096567e-07 4.804805688707327e-08  4.11161503072924e-23 9.666478220324139e-07 4.380646362675091e-08  4.11166036428938e-23 9.668071563701283e-07 4.396171468037431e-08  4.065662651683348e-23 9.668512378308705e-07 4.814890176816497e-08  4.107985336258048e-23 9.667247671054229e-07 4.421034251311858e-08  4.111699112202118e-23 9.669929141833387e-07 4.41439823918773e-08  4.068900310337415e-23 9.668964960704183e-07 4.790253764155255e-08  4.111519377667848e-23 9.663743021831922e-07 4.354155943936211e-08  4.118372960531693e-23 9.670429093819139e-07 4.359285077344857e-08  4.075380732462867e-23 9.667017591305324e-07 4.712409616827879e-08  4.076621937323378e-23 9.669336325554034e-07 4.7244171798204e-08  4.079116351514928e-23 9.669083622687312e-07 4.699422465506047e-08  4.107392913027877e-23 9.669155569712833e-07 4.445449311975183e-08  4.08233024155007e-23 9.671202606994716e-07 4.691664160650733e-08  4.079731955782977e-23 9.670861420683252e-07 4.711655575161057e-08  4.143960606260071e-23 9.669651437914338e-07 4.121035494761618e-08  4.142568227901581e-23 9.670513751986762e-07 4.142200064798763e-08  4.146958393821268e-23 9.672194130248751e-07 4.119460748218662e-08  4.112467029720198e-23 9.672545125638256e-07 4.433641291139866e-08  4.082390896642177e-23 9.673040983295787e-07 4.709501591161019e-08  4.073068229337575e-23 9.667717815627109e-07 4.740241036472447e-08  4.13865448749139e-23 9.669074456437993e-07 4.163058949017002e-08  4.141096745112249e-23 9.671488751776399e-07 4.165204001378574e-08  4.060012909578839e-23 9.667543845848878e-07 4.856093205091431e-08  4.055882787078781e-23 9.665737785238864e-07 4.875233435295812e-08  4.140226820108435e-23 9.668289095352257e-07 4.141043024983184e-08  4.16767993146711e-23 9.673998054154632e-07 3.950856968836756e-08  4.115234408102774e-23 9.670314553210368e-07 4.386409238355863e-08  4.168532100614743e-23 9.67024539474629e-07 3.905654717441856e-08  4.169055904008017e-23 9.671874324384344e-07 3.917226012288874e-08  4.171582569337832e-23 9.671810940533271e-07 3.893833995702458e-08  4.109693633017334e-23 9.6644759070464e-07 4.377929641936442e-08  4.097161321414532e-23 9.671745428272031e-07 4.563505881921698e-08  4.09730787745787e-23 9.670098268825398e-07 4.545714227971035e-08  4.094785242084848e-23 9.66977131627709e-07 4.565166581939823e-08  4.164622978020897e-23 9.675549826265895e-07 3.993909278751892e-08  4.144550059277587e-23 9.67255439889344e-07 4.144755783772561e-08  4.144077530919689e-23 9.673954304796315e-07 4.163010999874418e-08  4.121417556643835e-23 9.670710387642109e-07 4.334674731742283e-08  4.12121756360169e-23 9.669131790380407e-07 4.320690136305427e-08  4.1194428614993e-23 9.667045247863427e-07 4.315809806589658e-08  4.151000440389909e-23 9.67279791906186e-07 4.089091117509072e-08  4.155023801402529e-23 9.673336728271893e-07 4.058239995294958e-08  4.150805388862208e-23 9.67087906094001e-07 4.071659404265499e-08  4.150259680356262e-23 9.66887558977594e-07 4.056539997872864e-08  4.154058181220079e-23 9.670964324550183e-07 4.043213491465591e-08  4.100372010474515e-23 9.67228806795266e-07 4.540012962619705e-08  4.151022114966114e-23 9.674677145689423e-07 4.107688156558049e-08  4.067540423992472e-23 9.666811393555309e-07 4.780966859939224e-08  4.147407325398766e-23 9.670432557000769e-07 4.09780139956857e-08  4.147444916460007e-23 9.676244894958347e-07 4.155586188965554e-08  4.147656092885758e-23 9.674435849468939e-07 4.135593625926831e-08  4.060602034861554e-23 9.67056719858685e-07 4.881020363663736e-08  4.078379278232457e-23 9.671749293523293e-07 4.732718139786419e-08  4.116008460369802e-23 9.67258477781694e-07 4.402139441418882e-08  4.056530826229038e-23 9.671204961754646e-07 4.92406818270239e-08  4.174722945744329e-23 9.673391644155027e-07 3.881355035891817e-08  4.173757890370689e-23 9.671509130028896e-07 3.87122234067273e-08  4.161549365984639e-23 9.674999869776575e-07 4.016094349901042e-08  4.166310038796398e-23 9.671908773800201e-07 3.94230306153516e-08  4.071757384152297e-23 9.665846333802732e-07 4.733333262004594e-08  4.078825553452253e-23 9.667332166886016e-07 4.684527183586487e-08  4.082085842263331e-23 9.66946649713193e-07 4.676504415096248e-08  4.176654975434308e-23 9.673133611955305e-07 3.861372537510875e-08  4.176581206709226e-23 9.671666062753999e-07 3.847361495103393e-08  4.170432848606449e-23 9.669833829596848e-07 3.884418650053098e-08  4.068217688758191e-23 9.670490685064712e-07 4.811659516340198e-08  4.064363021089304e-23 9.669429945894192e-07 4.835771884389473e-08  4.123314742202637e-23 9.66889997017905e-07 4.29948222876035e-08  4.137234447652447e-23 9.669957702118047e-07 4.184681987596572e-08  4.128807594330202e-23 9.669297172919931e-07 4.25397904257934e-08  4.131606573186203e-23 9.669179770642802e-07 4.227594059542241e-08  4.127946345743162e-23 9.667500866452259e-07 4.243773415533952e-08  4.200780187397507e-23 9.669596206496023e-07 3.608697891702666e-08  4.202905465386593e-23 9.669133046878183e-07 3.584923493204844e-08  4.199364101834488e-23 9.667468083613813e-07 3.600171627708436e-08  4.180185798961583e-23 9.672332235588094e-07 3.821555942795277e-08  4.175745407768369e-23 9.669656906116072e-07 3.834798136321328e-08  4.187775385012511e-23 9.667981541501574e-07 3.709688088108365e-08  4.18926503099786e-23 9.670225377268258e-07 3.718708907566132e-08  4.191271647343993e-23 9.669588679785608e-07 3.6942679394822e-08  4.193238269143062e-23 9.672220907796207e-07 3.702876465185247e-08  4.068846440878433e-23 9.665779249274248e-07 4.758881862806702e-08  4.12440300846039e-23 9.670990555471482e-07 4.310585850658872e-08  4.132128987432998e-23 9.671282081909192e-07 4.243911682991755e-08  4.082225380833039e-23 9.667856126496693e-07 4.659143857042796e-08  4.093939027097729e-23 9.668073271351263e-07 4.555808159682882e-08  4.064113689707934e-23 9.664643755382223e-07 4.790155756702241e-08  4.15885831809329e-23 9.674742811187217e-07 4.03776256856888e-08  4.157997263015605e-23 9.672938788026174e-07 4.027478031612474e-08  4.121902419765509e-23 9.666613758448732e-07 4.289341181060309e-08  4.071014600839846e-23 9.668243274472567e-07 4.763993066001294e-08  4.108448426838987e-23 9.665609154793217e-07 4.400477939566227e-08  4.088874889087111e-23 9.670928040021175e-07 4.629969546497153e-08  4.085656889894234e-23 9.668495580583572e-07 4.634630112052953e-08  4.085396668666196e-23 9.670087823245236e-07 4.652896403120852e-08  4.13993767467601e-23 9.672779123965859e-07 4.188547701642649e-08  4.185731269703955e-23 9.668514258953063e-07 3.733427016507084e-08  4.147255059319684e-23 9.668625978121061e-07 4.081107101685524e-08  4.061805029129426e-23 9.669751855970575e-07 4.862031328427949e-08  4.157197919508939e-23 9.670941433100304e-07 4.014704328591304e-08  4.172492460957528e-23 9.673605972338543e-07 3.903588738636347e-08  4.172933028818893e-23 9.669650127145199e-07 3.860062004190366e-08  4.119221739578699e-23 9.672636838690477e-07 4.373717404058591e-08  4.085310924753603e-23 9.671681989562245e-07 4.669610378796541e-08  4.071696095215955e-23 9.671394324433319e-07 4.789365209972208e-08  4.16514354827666e-23 9.66955627944708e-07 3.929284930543995e-08  4.194656063501658e-23 9.671022531247104e-07 3.678122343404102e-08  4.187102119457336e-23 9.670736316257627e-07 3.743300072675703e-08  4.096445593185277e-23 9.668306584515997e-07 4.535564151134501e-08  4.100112474425009e-23 9.670124654452111e-07 4.520716520525902e-08  4.13449878974253e-23 9.671386478005562e-07 4.22361036235915e-08  4.103892682536792e-23 9.666101903759112e-07 4.446439925908695e-08  4.193191846452337e-23 9.66896493211918e-07 3.670734846840282e-08  4.189816144664103e-23 9.66746091735303e-07 3.686100317809993e-08  4.092088628973618e-23 9.66835490250381e-07 4.575291375812826e-08  4.092888516744457e-23 9.67026746469914e-07 4.587212249232747e-08  4.08526500052934e-23 9.673261212933455e-07 4.685816261147201e-08  4.089114215546547e-23 9.669309931639473e-07 4.611632801573064e-08  4.167386845613007e-23 9.676308198595203e-07 3.976598295929118e-08  4.141597496498236e-23 9.667674133396874e-07 4.122547450072646e-08  4.196562636589899e-23 9.670499253413337e-07 3.655716681366921e-08  4.195174094461698e-23 9.668445183311858e-07 3.647682855974431e-08  4.135629364881308e-23 9.670610376122717e-07 4.205666027983273e-08  4.162512554514216e-23 9.670117681867347e-07 3.958596839802978e-08  4.126006463078496e-23 9.669025741345082e-07 4.276495074153661e-08  4.170075001518446e-23 9.673794721181828e-07 3.927250765927268e-08  4.083860688463791e-23 9.675065901585612e-07 4.716512066259007e-08  4.085935263986963e-23 9.675062252454363e-07 4.697789459840307e-08  4.197274292453497e-23 9.667912609159967e-07 3.623440212668986e-08  4.193758748542527e-23 9.666351898508859e-07 3.639498310652801e-08  4.15993131866589e-23 9.670627134762419e-07 3.986941074363054e-08  4.102715892037227e-23 9.667506945828744e-07 4.471089933115678e-08  4.105001480739781e-23 9.669884711419454e-07 4.47428
[...]
<PointData  Tensors="f_45"> 
<DataArray  type="Float64"  Name="f_45"  NumberOfComponents="9" format="ascii">0.0000000000000000e+00 9.7074014134958371e-19 -4.0816027790546690e-19 9.7074014134958371e-19 1.7522801228598606e-02 1.2937514207100664e-04 -4.0816027790546690e-19 1.2937514207100664e-04 7.5760107128964261e-03  0.0000000000000000e+00 9.7117538748086513e-19 -4.0840153061709980e-19 9.7117538748086513e-19 1.7527103899271937e-02 1.2180131594363294e-04 -4.0840153061709980e-19 1.2180131594363294e-04 7.5687471097166730e-03  0.0000000000000000e+00 9.7146952583620909e-19 -4.0719922470553871e-19 9.7146952583620909e-19 1.7535783179690508e-02 1.3150494960872087e-04 -4.0719922470553871e-19 1.3150494960872087e-04 7.5631150043559501e-03  0.0000000000000000e+00 9.6781764432974768e-19 -3.9873719709837020e-19 9.6781764432974768e-19 1.7500789360303130e-02 2.9159595884968028e-04 -3.9873719709837020e-19 2.9159595884968028e-04 7.7000660559442147e-03  0.0000000000000000e+00 9.6740530428440036e-19 -4.0050724315457970e-19 9.6740530428440036e-19 1.7490093866297490e-02 2.7647142432068539e-04 -4.0050724315457970e-19 2.7647142432068539e-04 7.7049707380297426e-03  0.0000000000000000e+00 9.6807630317391226e-19 -3.9891658836516289e-19 9.6807630317391226e-19 1.7505002057404181e-02 2.8360823548773361e-04 -3.9891658836516289e-19 2.8360823548773361e-04 7.6877691213842929e-03  0.0000000000000000e+00 9.6695784530598101e-19 -4.0083643936296209e-19 9.6695784530598101e-19 1.7482892106739832e-02 2.8136276197963234e-04 -4.0083643936296209e-19 2.8136276197963234e-04 7.7198247402377592e-03  0.0000000000000000e+00 9.6647255022487406e-19 -3.9057939000975088e-19 9.6647255022487406e-19 1.7486383281468870e-02 4.4316224797477693e-04 -3.9057939000975088e-19 4.4316224797477693e-04 7.8464156639290218e-03  0.0000000000000000e+00 9.6689084697223027e-19 -3.9020926702135143e-19 9.6689084697223027e-19 1.7495332030870961e-02 4.3740297221455499e-04 -3.9020926702135143e-19 4.3740297221455499e-04 7.8268161843016281e-03  0.0000000000000000e+00 9.6734688814860211e-19 -3.8832220285558927e-19 9.6734688814860211e-19 1.7504399317600266e-02 4.5550433742683617e-04 -3.8832220285558927e-19 4.5550433742683617e-04 7.8281726095877358e-03  0.0000000000000000e+00 9.7256013640392265e-19 -4.0836390804276684e-19 9.7256013640392265e-19 1.7549285401717494e-02 1.0611503321356994e-04 -4.0836390804276684e-19 1.0611503321356994e-04 7.5394607126987902e-03  0.0000000000000000e+00 9.7313463280210715e-19 -4.0690097268167200e-19 9.7313463280210715e-19 1.7560941173402678e-02 1.1511064819701385e-04 -4.0690097268167200e-19 1.1511064819701385e-04 7.5297914774484350e-03  0.0000000000000000e+00 9.7237986254309044e-19 -4.0768689080374944e-19 9.7237986254309044e-19 1.7547060439892237e-02 1.1545752590897075e-04 -4.0768689080374944e-19 1.1545752590897075e-04 7.5449270764032950e-03  0.0000000000000000e+00 9.7115936354952187e-19 -4.0672380373616961e-19 9.7115936354952187e-19 1.7532149365309554e-02 1.3949055702254648e-04 -4.0672380373616961e-19 1.3949055702254648e-04 7.5685682237264301e-03  0.0000000000000000e+00 9.6774004891118956e-19 -4.0037973240129168e-19 9.6774004891118956e-19 1.7496011220592775e-02 2.7173103956101331e-04 -4.0037973240129168e-19 2.7173103956101331e-04 7.6933058077964557e-03  0.0000000000000000e+00 9.6834022574034766e-19 -3.9935896856547792e-19 9.6834022574034766e-19 1.7506225366839448e-02 2.7358682217376660e-04 -3.9935896856547792e-19 2.7358682217376660e-04 7.6792266048305372e-03  0.0000000000000000e+00 9.7169851685379692e-19 -4.0606541554883094e-19 9.7169851685379692e-19 1.7543078999283861e-02 1.4006095038526401e-04 -4.0606541554883094e-19 1.4006095038526401e-04 7.5566314317779175e-03  0.0000000000000000e+00 9.6820656445649171e-19 -4.0027419265734619e-19 9.6820656445649171e-19 1.7503538586351831e-02 2.6231534230635784e-04 -4.0027419265734619e-19 2.6231534230635784e-04 7.6734498094678093e-03  0.0000000000000000e+00 9.6902063521416883e-19 -3.9812808935159189e-19 9.6902063521416883e-19 1.7520033833245758e-02 2.7579948973556674e-04 -3.9812808935159189e-19 2.7579948973556674e-04 7.6599270922820435e-03  0.0000000000000000e+00 9.7185665995841550e-19 -4.0529321365410156e-19 9.7185665995841550e-19 1.7545779613932142e-02 1.4822981593105473e-04 -4.0529321365410156e-19 1.4822981593105473e-04 7.5592066484687619e-03  0.0000000000000000e+00 9.6673746472158181e-19 -4.0228829297339211e-19 9.6673746472158181e-19 1.7475016230677053e-02 2.6692669095702208e-04 -4.0228829297339211e-19 2.6692669095702208e-04 7.7210127201003337e-03  0.0000000000000000e+00 9.6861047522954096e-19 -3.9705267910462926e-19 9.6861047522954096e-19 1.7516620868343716e-02 2.9707679691139718e-04 -3.9705267910462926e-19 2.9707679691139718e-04 7.6791330173727052e-03  0.0000000000000000e+00 9.7055755444707761e-19 -4.0488505659176162e-19 9.7055755444707761e-19 1.7527451406896929e-02 1.6857572050162011e-04 -4.0488505659176162e-19 1.6857572050162011e-04 7.5874713562841282e-03  0.0000000000000000e+00 9.7136702373359603e-19 -4.0374032268377990e-19 9.7136702373359603e-19 1.7543001952342829e-02 1.7152001353508775e-04 -4.0374032268377990e-19 1.7152001353508775e-04 7.5717698064060451e-03  0.0000000000000000e+00 9.7102656000227177e-19 -4.0346230052972420e-19 9.7102656000227177e-19 1.7538760216682797e-02 1.7860831492707641e-04 -4.0346230052972420e-19 1.7860831492707641e-04 7.5790464936367260e-03  0.0000000000000000e+00 9.6899531191825291e-19 -3.9914071738544846e-19 9.6899531191825291e-19 1.7517657045666327e-02 2.6365406634780902e-04 -3.9914071738544846e-19 2.6365406634780902e-04 7.6557987340883041e-03  0.0000000000000000e+00 9.7170269993365921e-19 -4.0198086861499966e-19 9.7170269993365921e-19 1.7552448022365292e-02 1.8701771108888725e-04 -4.0198086861499966e-19 1.8701771108888725e-04 7.5676706295745560e-03  0.0000000000000000e+00 9.7164894518659728e-19 -4.0255921991721649e-19 9.7164894518659728e-19 1.7550656873655028e-02 1.8050837832750359e-04 -4.0255921991721649e-19 1.8050837832750359e-04 7.5658934041615677e-03  0.0000000000000000e+00 9.6650383672384763e-19 -3.9492693215020800e-19 9.6650383672384763e-19 1.7484895040114214e-02 3.7475556900133216e-04 -3.9492693215020800e-19 3.7475556900133216e-04 7.7899725114537891e-03  0.0000000000000000e+00 9.6691154686837765e-19 -3.9429048835949868e-19 9.6691154686837765e-19 1.7492205206207121e-02 3.7083271033617094e-04 -3.9429048835949868e-19 3.7083271033617094e-04 7.7706961289805507e-03  0.0000000000000000e+00 9.6737054566177666e-19 -3.9245753775173887e-19 9.6737054566177666e-19 1.7502861945922935e-02 3.8930906252540104e-04 -3.9245753775173887e-19 3.8930906252540104e-04 7.7722411781239280e-03  0.0000000000000000e+00 9.6986049773921975e-19 -3.9662119266592876e-19 9.6986049773921975e-19 1.7537116831546753e-02 2.8001685096844269e-04 -3.9662119266592876e-19 2.8001685096844269e-04 7.6392625972591484e-03  0.0000000000000000e+00 9.7244414842221334e-19 -4.0122823236261765e-19 9.7244414842221334e-19 1.7566060100581437e-02 1.8637427916057977e-04 -4.0122823236261765e-19 1.8637427916057977e-04 7.5525701466678504e-03  0.0000000000000000e+00 9.7100303455042665e-19 -4.0510704780303941e-19 9.7100303455042665e-19 1.7534723564153733e-02 1.6148464657163582e-04 -4.0510704780303941e-19 1.6148464657163582e-04 7.5780411454207117e-03  0.0000000000000000e+00 9.6650907686795558e-19 -3.9597275661309051e-19 9.6650907686795558e-19 1.7484771316015855e-02 3.5648861965886135e-04 -3.9597275661309051e-19 3.5648861965886135e-04 7.7724966335576797e-03  0.0000000000000000e+00 9.6737844664215427e-19 -3.9370984397984441e-19 9.6737844664215427e-19 1.7502394745585029e-02 3.6883207520747386e-04 -3.9370984397984441e-19 3.6883207520747386e-04 7.7544562786846846e-03  0.0000000000000000e+00 9.7186986596811991e-19 -4.0733721629666114e-19 9.7186986596811991e-19 1.7540402571440197e-02 1.2415526587734714e-04 -4.0733721629666114e-19 1.2415526587734714e-04 7.5534939673327361e-03  0.0000000000000000e+00 9.7152514262688493e-19 -4.0873227385957859e-19 9.7152514262688493e-19 1.7531540901722330e-02 1.1412119716353622e-04 -4.0873227385957859e-19 1.1412119716353622e-04 7.5612086388606300e-03  0.0000000000000000e+00 9.6617194980257859e-19 -3.9644926814740765e-19 9.6617194980257859e-19 1.7476571391310425e-02 3.5866148639420386e-04 -3.9644926814740765e-19 3.5866148639420386e-04 7.7875532191060658e-03  0.0000000000000000e+00 9.6701579268688440e-19 -3.8863824592689131e-19 9.6701579268688440e-19 1.7497432050471953e-02 4.6047860604710893e-04 -3.8863824592689131e-19 4.6047860604710893e-04 7.8448172542007009e-03  0.0000000000000000e+00 9.6881902630877270e-19 -3.9751882091030492e-19 9.6881902630877270e-19 1.7519332559375839e-02 2.8739090309495868e-04 -3.9751882091030492e-19 2.8739090309495868e-04 7.6692037252071611e-03  0.0000000000000000e+00 9.6567418859658559e-19 -3.9214517772429383e-19 9.6567418859658559e-19 1.7466396402072270e-02 4.5141614485720344e-04 -3.9214517772429383e-19 4.5141614485720344e-04 7.8967350564385867e-03  0.0000000000000000e+00 9.6609990895964814e-19 -3.9078170944149986e-19 9.6609990895964814e-19 1.7476834149153797e-02 4.5661950906410994e-04 -3.9078170944149986e-19 4.5661950906410994e-04 7.8798110730459118e-03  0.0000000000000000e+00 9.6591607965325013e-19 -3.9042113637931292e-19 9.6591607965325013e-19 1.7473660462219789e-02 4.6580729859133226e-04 -3.9042113637931292e-19 4.6580729859133226e-04 7.8915532578130582e-03  0.0000000000000000e+00 9.6708981424064326e-19 -4.0188733566298740e-19 9.6708981424064326e-19 1.7481722583203421e-02 2.6320372126351093e-04 -4.0188733566298740e-19 2.6320372126351093e-04 7.7059847880651868e-03  0.0000000000000000e+00 9.7064284043939719e-19 -3.9926678956068628e-19 9.7064284043939719e-19 1.7544689599443490e-02 2.3392909839482163e-04 -3.9926678956068628e-19 2.3392909839482163e-04 7.6012665941438840e-03  0.0000000000000000e+00 9.7005195439766541e-19 -4.0020082382585766e-19 9.7005195439766541e-19 1.7534166080788820e-02 2.3318577626898517e-04 -4.0020082382585766e-19 2.3318577626898517e-04 7.6164850773915637e-03  0.0000000000000000e+00 9.6999385012416416e-19 -4.0067415310878926e-19 9.6999385012416416e-19 1.7530797151541710e-02 2.2541151844136131e-04 -4.0067415310878926e-19 2.2541151844136131e-04 7.6117855197762171e-03  0.0000000000000000e+00 9.6787482000013178e-19 -3.8756570122677511e-19 9.6787482000013178e-19 1.7514070167345543e-02 4.5315197749627582e-04 -3.8756570122677511e-19 4.5315197749627582e-04 7.8096794929255224e-03  0.0000000000000000e+00 9.6773199423448030e-19 -3.9242454761818662e-19 9.6773199423448030e-19 1.7510092787350176e-02 3.8237399323446042e-04 -3.9242454761818662e-19 3.8237399323446042e-04 7.7570571793295177e-03  0.0000000000000000e+00 9.6835534501649112e-19 -3.9125580003579999e-19 9.6835534501649112e-19 1.7520625893531448e-02 3.8317506283784146e-04 -3.9125580003579999e-19 3.8317506283784146e-04 7.7383012170497327e-03  0.0000000000000000e+00 9.6852443241726923e-19 -3.9660950012288166e-19 9.6852443241726923e-19 1.7516258378538652e-02 3.0534929184207601e-04 -3.9660950012288166e-19 3.0534929184207601e-04 7.6865068847408484e-03  0.0000000000000000e+00 9.6805503778408126e-19 -3.9753904187174479e-19 9.6805503778408126e-19 1.7505953108056912e-02 3.0372488776407157e-04 -3.9753904187174479e-19 3.0372488776407157e-04 7.7018526205811779e-03  0.0000000000000000e+00 9.6728979007384206e-19 -3.9922604969624281e-19 9.6728979007384206e-19 1.7491106517493662e-02 2.9521878381041987e-04 -3.9922604969624281e-19 2.9521878381041987e-04 7.7162919572643443e-03  0.0000000000000000e+00 9.6731416204413782e-19 -3.9155257615183351e-19 9.6731416204413782e-19 1.7503325319618034e-02 4.0327020642945280e-04 -3.9155257615183351e-19 4.0327020642945280e-04 7.7823820363819903e-03  0.0000000000000000e+00 9.6728796553191175e-19 -3.9070809266739185e-19 9.6728796553191175e-19 1.7503722488733747e-02 4.1716814575837107e-04 -3.9070809266739185e-19 4.1716814575837107e-04 7.7940959694914073e-03  0.0000000000000000e+00 9.6664750508074190e-19 -3.9314506800939128e-19 9.6664750508074190e-19 1.7489080154632127e-02 3.9858653684433481e-04 -3.9314506800939128e-19 3.9858653684433481e-04 7.8039382209384922e-03  0.0000000000000000e+00 9.6587306726499735e-19 -3.9513084038960444e-19 9.6587306726499735e-19 1.7472474095842190e-02 3.9009318765320460e-04 -3.9513084038960444e-19 3.9009318765320460e-04 7.8253790449166367e-03  0.0000000000000000e+00 9.6645888037208082e-19 -3.9294756982425677e-19 9.6645888037208082e-19 1.7486083938156267e-02 4.0804639097755032e-04 -3.9294756982425677e-19 4.0804639097755032e-04 7.8188983739949647e-03  0.0000000000000000e+00 9.7077593215304490e-19 -3.9837010976970982e-19 9.7077593215304490e-19 1.7546370495157039e-02 2.4294330899970562e-04 -3.9837010976970982e-19 2.4294330899970562e-04 7.6038585397201217e-03  0.0000000000000000e+00 9.6799810677706341e-19 -3.9006965670307630e-19 9.6799810677706341e-19 1.7518171022614017e-02 4.0713553527699616e-04 -3.9006965670307630e-19 4.0713553527699616e-04 7.7608739421533212e-03  0.0000000000000000e+00 9.7116379991460260e-19 -4.0637180314165579e-19 9.7116379991460260e-19 1.7532516794547454e-02 1.4510113704002252e-04 -4.0637180314165579e-19 1.4510113704002252e-04 7.5731607939862151e-03  0.0000000000000000e+00 9.6661066896224251e-19 -3.9390681327448290e-19 9.6661066896224251e-19 1.7488551502128660e-02 3.8667970137599051e-04 -3.9390681327448290e-19 3.8667970137599051e-04 7.7937120047478926e-03  0.0000000000000000e+00 9.6897412830605204e-19 -3.8907394811862209e-19 9.6897412830605204e-19 1.7536245759397138e-02 3.9870464748750572e-04 -3.8907394811862209e-19 3.9870464748750572e-04 7.7255827793289867e-03  0.0000000000000000e+00 9.6816886025933411e-19 -3.9042396052652590e-19 9.6816886025933411e-19 1.7520554176367515e-02 3.9675025193403095e-04 -3.9042396052652590e-19 3.9675025193403095e-04 7.7471788132598765e-03  0.0000000000000000e+00 9.7310117487441482e-19 -4.0635647368845914e-19 9.7310117487441482e-19 1.7560269800531270e-02 1.2081153917270376e-04 -4.0635647368845914e-19 1.2081153917270376e-04 7.5314530859782293e-03  0.0000000000000000e+00 9.7207398066264877e-19 -4.0254797371987277e-19 9.7207398066264877e-19 1.7557983858138084e-02 1.7493571725905565e-04 -4.0254797371987277e-19 1.7493571725905565e-04 7.5548752625076441e-03  0.0000000000000000e+00 9.6968776244723818e-19 -3.9594180767434352e-19 9.6968776244723818e-19 1.7534627930000143e-02 2.9088054288323070e-04 -3.9594180767434352e-19 2.9088054288323070e-04 7.6481284482678115e-03  0.0000000000000000e+00 9.7346384001266240e-19 -4.0711590798114969e-19 9.7346384001266240e-19 1.7566135789591548e-02 1.0881583446102621e-04 -4.0711590798114969e-19 1.0881583446102621e-04 7.5218096338092438e-03  0.0000000000000000e+00 9.6642945435908180e-19 -3.8845851625609831e-19 9.6642945435908180e-19 1.7484687507618630e-02 4.8190261911820541e-04 -3.8845851625609831e-19 4.8190261911820541e-04 7.8866095689771286e-03  0.0000000000000000e+00 9.6582973819258055e-19 -3.9052357574917382e-19 9.6582973819258055e-19 1.7470585902404131e-02 4.7233661956444663e-04 -3.9052357574917382e-19 4.7233661956444663e-04 7.9079764537238126e-03  0.0000000000000000e+00 9.6763414758603764e-19 -3.8843635917105975e-19 9.6763414758603764e-19 1.7511159822863834e-02 4.4349806717158645e-04 -3.8843635917105975e-19 4.4349806717158645e-04 7.8046308271529181e-03  0.0000000000000000e+00 9.6625930010551158e-19 -3.9072076882623671e-19 9.6625930010551158e-19 1.7480965212576999e-02 4.4999215384858597e-04 -3.9072076882623671e-19 4.4999215384858597e-04 7.8641988262797904e-03  0.0000000000000000e+00 9.7038180274114751e-19 -4.0592390894805257e-19 9.7038180274114751e-19 1.7521446897236951e-02 1.5832619364421712e-04 -4.0592390894805257e-19 1.5832619364421712e-04 7.5885250512982170e-03  0.0000000000000000e+00 9.7048187330962876e-19 -4.0420921793914725e-19 9.7048187330962876e-19 1.7527590313703566e-02 1.7796014079140331e-04 -4.0420921793914725e-19 1.7796014079140331e-04 7.5925631130695365e-03  0.0000000000000000e+00 9.7101561305006784e-19 -4.0271178730132019e-19 9.7101561305006784e-19 1.7539381338676736e-02 1.8736330506609846e-04 -4.0271178730132019e-19 1.8736330506609846e-04 7.5822181047779501e-03  0.0000000000000000e+00 9.6616285311231668e-19 -3.8867987374016025e-19 9.6616285311231668e-19 1.7478790132925848e-02 4.8707590460193352e-04 -3.8867987374016025e-19 4.8707590460193352e-04 7.9020384754719137e-03  0.0000000000000000e+00 9.6560610541924319e-19 -3.9028540798111405e-19 9.6560610541924319e-19 1.7468227980492666e-02 4.8228360866375966e-04 -3.9028540798111405e-19 4.8228360866375966e-04 7.9219092948553064e-03  0.0000000000000000e+00 9.6528225495894969e-19 -3.9265541210043528e-19 9.6528225495894969e-19 1.7460630974164993e-02 4.5597560278518734e-04 -3.9265541210043528e-19 4.5597560278518734e-04 7.9137505168548321e-03  0.0000000000000000e+00 9.7245935553021993e-19 -4.0488563964962180e-19 9.7245935553021993e-19 1.7556324896398016e-02 1.4558616859288061e-04 -4.0488563964962180e-19 1.4558616859288061e-04 7.5468890689998668e-03  0.0000000000000000e+00 9.7220741332370381e-19 -4.0598844879036309e-19 9.7220741332370381e-19 1.7550255423158769e-02 1.3511312449965323e-04 -4.0598844879036309e-19 1.3511312449965323e-04 7.5473403100827664e-03  0.0000000000000000e+00 9.6768722317326895e-19 -3.9757141549967309e-19 9.6768722317326895e-19 1.7501518949833973e-02 3.1021506263309215e-04 -3.9757141549967309e-19 3.1021506263309215e-04 7.7132243609995569e-03  0.0000000000000000e+00 9.6701816718597582e-19 -3.9552055328312537e-19 9.6701816718597582e-19 1.7493476288791245e-02 3.5331152857664218e-04 -3.9552055328312537e-19 3.5331152857664218e-04 7.7584622634918774e-03  0.0000000000000000e+00 9.6742967011523802e-19 -3.9690763688112343e-19 9.6742967011523802e-19 1.7498745141200128e-02 3.2594022208547256e-04 -3.9690763688112343e-19 3.2594022208547256e-04 7.7308512525543441e-03  0.0000000000000000e+00 9.6724499379107181e-19 -3.9656469068567848e-19 9.6724499379107181e-19 1.7494904255703790e-02 3.3355305129782113e-04 -3.9656469068567848e-19 3.3355305129782113e-04 7.7404129941408256e-03  0.0000000000000000e+00 9.6690407380080424e-19 -3.9817276134917332e-19 9.6690407380080424e-19 1.7485803288239767e-02 3.2004468847782717e-04 -3.9817276134917332e-19 3.2004468847782717e-04 7.7453241931709250e-03  0.0000000000000000e+00 9.6469898382193989e-19 -3.9080274660863398e-19 9.6469898382193989e-19 1.7431561770522280e-02 5.4967607100974596e-04 -3.9080274660863398e-19 5.4967607100974596e-04 8.0863387237627947e-03  0.0000000000000000e+00 9.6459705066857829e-19 -3.9122415275498006e-19 9.6459705066857829e-19 1.7427109658129557e-02 5.5432061389688002e-04 -3.9122415275498006e-19 5.5432061389688002e-04 8.1058350357427235e-03  0.0000000000000000e+00 9.6394391904997223e-19 -3.9368101102050929e-19 9.6394391904997223e-19 1.7415384690435205e-02 5.3392791622415916e-04 -3.9368101102050929e-19 5.3392791622415916e-04 8.1092676587047659e-03  0.0000000000000000e+00 9.6578033068961809e-19 -3.8924428187106476e-19 9.6578033068961809e-19 1.7470792386129516e-02 4.9610283609360538e-04 -3.8924428187106476e-19 4.9610283609360538e-04 7.9313666468836079e-03  0.0000000000000000e+00 9.6502846844436492e-19 -3.9225844331356687e-19 9.6502846844436492e-19 1.7454503861957040e-02 4.7258041527330354e-04 -3.9225844331356687e-19 4.7258041527330354e-04 7.9413642886985280e-03  0.0000000000000000e+00 9.6411897955272890e-19 -3.9366965527572337e-19 9.6411897955272890e-19 1.7428642558574691e-02 5.0113960039014944e-04 -3.9366965527572337e-19 5.0113960039014944e-04 8.0333822016511215e-03  0.0000000000000000e+00 9.6494435309496534e-19 -3.9071759463209436e-19 9.6494435309496534e-19 1.7445771309217407e-02 5.1642057230370819e-04 -3.9071759463209436e-19 5.1642057230370819e-04 8.0085044058910270e-03  0.0000000000000000e+00 9.6466136048295285e-19 -3.9144499238047209e-19 9.6466136048295285e-19 1.7439181409765064e-02 5.2041807676667692e-04 -3.9144499238047209e-19 5.2041807676667692e-04 8.0310950054950942e-03  0.0000000000000000e+00 9.6568696601719337e-19 -3.8818255758215746e-19 9.6568696601719337e-19 1.7459757335897236e-02 5.3732302720444066e-04 -3.8818255758