<?xml version="1.0"?>
<VTKFile type="UnstructuredGrid"  version="0.1"  >
<UnstructuredGrid>
<Piece  NumberOfPoints="10412" NumberOfCells="20437">
<Points>
<DataArray  type="Float64"  NumberOfComponents="3"  format="ascii">3.377330806630044e-23 9.249241761859685e-07 6.822126094104899e-08  3.361254692808431e-23 9.260002580669399e-07 7.074535042635212e-08  3.398542256333146e-23 9.274353221203229e-07 6.882184933582581e-08  3.384682389229446e-23 9.282870979698116e-07 7.092201103178713e-08  3.347231164578849e-23 9.272645250385755e-07 7.327274452817096e-08  3.422503494552066e-23 9.266859539086698e-07 6.591424465389144e-08  3.432964615901317e-23 9.288481346486294e-07 6.713417134964383e-08  3.417927189344058e-23 9.296839662732811e-07 6.932445394709314e-08  3.376706805473849e-23 9.292102907499433e-07 7.256358053251419e-08  3.360272842264584e-23 9.293137304777222e-07 7.414726007200244e-08  3.391638436234728e-23 9.309574820573006e-07 7.296585010525694e-08  3.370279385381123e-23 9.310482521456282e-07 7.498047246289024e-08  3.452172729225416e-23 9.286280072242704e-07 6.518393088510686e-08  3.465795948995875e-23 9.278083138861462e-07 6.313716699734602e-08  3.402693224753887e-23 9.302246143127101e-07 7.123725553155556e-08  3.446050178043401e-23 9.305022010585882e-07 6.760959510386214e-08  3.465521146072174e-23 9.302898508146931e-07 6.564345597278846e-08  3.442633180785699e-23 9.315162004794754e-07 6.893137027627958e-08  3.419869044128435e-23 9.319339513961405e-07 7.139953234028602e-08  3.393307374492826e-23 9.320051816249339e-07 7.386322507854473e-08  3.462060672421894e-23 9.320158102676773e-07 6.768110718261125e-08  3.480400162820731e-23 9.297539108555439e-07 6.376733332795053e-08  3.417692864546583e-23 9.329399278243592e-07 7.260152159958316e-08  3.424362965655404e-23 9.311742767208584e-07 7.023508119871815e-08  3.46084761308052e-23 9.329305328524711e-07 6.870509243936088e-08  3.357958856143181e-23 9.327627185063942e-07 7.780467344135625e-08  3.346813886314959e-23 9.331632466319337e-07 7.920905120620451e-08  3.367512747683025e-23 9.339154367363651e-07 7.80968536237515e-08  3.491495868072026e-23 9.31189362518916e-07 6.420337271061978e-08  3.467135750923647e-23 9.313733866154598e-07 6.658156109740629e-08  3.442236555619136e-23 9.3254501336338e-07 6.999590797923095e-08  3.369398725313887e-23 9.321992543449678e-07 7.621079746924272e-08  3.37923819027352e-23 9.33528187039995e-07 7.665346994975532e-08  3.48064288118252e-23 9.325320622320669e-07 6.652362257799935e-08  3.496688385974539e-23 9.295113161509742e-07 6.20576259088605e-08  3.384699668256893e-23 9.323179657174825e-07 7.495132242302661e-08  3.402845024762305e-23 9.331272747156481e-07 7.412624300526667e-08  3.48457747168018e-23 9.317921226666012e-07 6.542928660655134e-08  3.390420604299727e-23 9.332947362077335e-07 7.541279680466332e-08  3.478344989583103e-23 9.332831030907047e-07 6.748163911165454e-08  3.358033632626954e-23 9.343946413522985e-07 7.94298610203714e-08  3.44115747828433e-23 9.334772769279171e-07 7.10253661894268e-08  3.506239648421486e-23 9.309412075447385e-07 6.2627216062685e-08  3.377264925185569e-23 9.349367910442401e-07 7.823980987229638e-08  3.461244704285385e-23 9.338818005044687e-07 6.962059329531328e-08  3.422215458933197e-23 9.340261554265535e-07 7.328039011389133e-08  3.387164077551432e-23 9.34664005042161e-07 7.707538749209353e-08  3.493154208578951e-23 9.335840679197696e-07 6.644870807769255e-08  3.478292414739249e-23 9.341127429190234e-07 6.831601446091707e-08  3.493138322192702e-23 9.343163795672584e-07 6.718245064364511e-08  3.497220799752905e-23 9.329713107434081e-07 6.546966493141724e-08  3.408541189155813e-23 9.341336710936811e-07 7.461957450649878e-08  3.398045827770769e-23 9.34333439632433e-07 7.576468115770671e-08  3.441108162866298e-23 9.344492349155833e-07 7.200176611505841e-08  3.51431259650847e-23 9.321561938948225e-07 6.311505589284263e-08  3.503532671923199e-23 9.324886147084259e-07 6.441844599335217e-08  3.495611265013475e-23 9.351291539824659e-07 6.77724821715298e-08  3.363534545559423e-23 9.353898147292272e-07 7.99295562086428e-08  3.371221047653201e-23 9.352947741645014e-07 7.914217708461056e-08  3.376651473986136e-23 9.36022216393403e-07 7.93804899933228e-08  3.383872478740302e-23 9.358149269466642e-07 7.852279026018195e-08  3.393666567547454e-23 9.35614587424931e-07 7.744027764440235e-08  3.462582831564255e-23 9.348449535002685e-07 7.046321850082316e-08  3.481264095151086e-23 9.351324958246077e-07 6.906810219059314e-08  3.504451890896233e-23 9.344655313918433e-07 6.6312566792281e-08  3.370089442310428e-23 9.36213795122256e-07 8.016312399036602e-08  3.426022336126544e-23 9.349607767490498e-07 7.387211842219962e-08  3.508940317980481e-23 9.340590291870607e-07 6.550178301661644e-08  3.405664321054534e-23 9.35382951667278e-07 7.612798032227399e-08  3.522554186187097e-23 9.332806146959331e-07 6.349714028984104e-08  3.509346968761806e-23 9.352733070337957e-07 6.667943301720642e-08  3.413577584913461e-23 9.350386703577457e-07 7.50709355694147e-08  3.458942268003379e-23 9.354774072564693e-07 7.142358507094758e-08  3.436207060878767e-23 9.34870350066031e-07 7.286433328720116e-08  3.51778897839769e-23 9.35002814565249e-07 6.564855191965133e-08  3.441843407407157e-23 9.355965587116149e-07 7.308286497028535e-08  3.514627998836082e-23 9.336206369616972e-07 6.455109004361525e-08  3.388140618438989e-23 9.36532587015227e-07 7.885601048161334e-08  3.395478484737059e-23 9.363710322543091e-07 7.803351948218179e-08  3.448922708284079e-23 9.354581721842899e-07 7.230683170713326e-08  3.47124335892137e-23 9.357968702626134e-07 7.063506430760145e-08  3.435903692008906e-23 9.357576983299948e-07 7.377900658975022e-08  3.40881034816421e-23 9.361606619048342e-07 7.662232162945343e-08  3.382123942155684e-23 9.367286110427585e-07 7.959396853049493e-08  3.523968691644341e-23 9.346578616573948e-07 6.474697992629963e-08  3.49938148594764e-23 9.359398789279267e-07 6.824361580510646e-08  3.479759571216331e-23 9.357836244418794e-07 6.985474627650341e-08  3.398888705570264e-23 9.370109013906723e-07 7.836622323307148e-08  3.509110706041709e-23 9.359431992753096e-07 6.737060591268429e-08  3.491650289623524e-23 9.360942201249379e-07 6.909432125980591e-08  3.376528030942448e-23 9.369482334916801e-07 8.031762585251101e-08  3.471433564461827e-23 9.36327730797015e-07 7.114879264998036e-08  3.446475011630479e-23 9.362753112427898e-07 7.334443968037448e-08  3.40329079259098e-23 9.363636857361223e-07 7.732250282919849e-08  3.416360199487034e-23 9.36132669909696e-07 7.591429948223178e-08  3.413628587746631e-23 9.368294709015817e-07 7.685714218644148e-08  3.525521607137267e-23 9.358645364087617e-07 6.581378048496098e-08  3.511816837751499e-23 9.365944460211981e-07 6.777810598337618e-08  3.532352095474638e-23 9.343776172489148e-07 6.371162563049522e-08  3.488698901546516e-23 9.364070332634654e-07 6.967297180321022e-08  3.482758340248392e-23 9.365179143606899e-07 7.031893109340685e-08  3.498023282224578e-23 9.368027660768655e-07 6.922883906966679e-08  3.406227723111376e-23 9.3690749339613e-07 7.760177530526092e-08  3.392978911738151e-23 9.371861101303843e-07 7.907373887878632e-08  3.371562680716229e-23 9.371437045781696e-07 8.096033592757175e-08  3.382161817961415e-23 9.376416105908652e-07 8.050355652931e-08  3.504251779417677e-23 9.366612191415509e-07 6.852627898159368e-08  3.453744085961593e-23 9.362327239997982e-07 7.264711242840431e-08  3.420265685978995e-23 9.367276265657664e-07 7.615748118810422e-08  3.426952632901677e-23 9.357114701386294e-07 7.453901812758255e-08  3.531806932570221e-23 9.355446104370179e-07 6.492772272766203e-08  3.518917809499956e-23 9.365744018065054e-07 6.711846309427715e-08  3.438797813921689e-23 9.363351711481337e-07 7.409580008052959e-08  3.521172557627166e-23 9.362065029824172e-07 6.654747461367854e-08  3.419971067686034e-23 9.358614553512604e-07 7.531784683028611e-08  3.373264488620474e-23 9.37617181853222e-07 8.12805279737559e-08  3.46166904854257e-23 9.36223998272781e-07 7.192456953085479e-08  3.492866999440782e-23 9.369171106795686e-07 6.980762033684425e-08  3.386952118201445e-23 9.373633249851536e-07 7.979379903607855e-08  3.449661201543203e-23 9.368728304090919e-07 7.36549723726032e-08  3.538679777645569e-23 9.352781796793451e-07 6.404224111958296e-08  3.481488077904147e-23 9.370082678753622e-07 7.092369966848317e-08  3.538067927306358e-23 9.363485475023453e-07 6.516771952177684e-08  3.51486357240052e-23 9.371953725745834e-07 6.810460707616088e-08  3.431433081062716e-23 9.364158199178495e-07 7.483980501343242e-08  3.523634896393654e-23 9.371875197392838e-07 6.730670361152085e-08  3.442304114708674e-23 9.369535658985487e-07 7.439837533259031e-08  3.528196500521481e-23 9.368614399224627e-07 6.656975102169384e-08  3.382133898615007e-23 9.380965167482208e-07 8.096097743782712e-08  3.500872878776233e-23 9.373490508205021e-07 6.951845497393955e-08  3.532388033690213e-23 9.365935707314293e-07 6.592434208632421e-08  3.426173044062817e-23 9.365805789144511e-07 7.547834602348806e-08  3.507717040188104e-23 9.372717006407182e-07 6.882463753847235e-08  3.492808052062312e-23 9.373495961499844e-07 7.024541531509425e-08  3.398042719410432e-23 9.378045508057591e-07 7.923607230724191e-08  3.47202980019721e-23 9.368537239032615e-07 7.162108161551295e-08  3.544653634559168e-23 9.36094111313049e-07 6.432009555788595e-08  3.457124827430483e-23 9.368463040839577e-07 7.295618239217319e-08  3.402483019542519e-23 9.375794514866123e-07 7.861102630768955e-08  3.424286962448567e-23 9.37354432527082e-07 7.642208276522148e-08  3.40941260340074e-23 9.374782021775769e-07 7.788561557301971e-08  3.416535976624842e-23 9.373912427111467e-07 7.715703968663588e-08  3.435989348394047e-23 9.370720304482427e-07 7.508562346671401e-08  3.391215913828191e-23 9.378916659398561e-07 7.993809142286513e-08  3.375668502674574e-23 9.380772463586101e-07 8.152405814317927e-08  3.389708612958944e-23 9.382502208463585e-07 8.043241192202908e-08  3.516805305459221e-23 9.376941967556843e-07 6.842
[...]
<PointData  Tensors="f_58"> 
<DataArray  type="Float64"  Name="f_58"  NumberOfComponents="9" format="ascii">2.7993142513906251e-17 -2.6178982223781732e-20 -9.2593492235714474e-21 -2.6178982223781732e-20 -1.2781691067947441e-03 9.4981829249958711e-04 -9.2593492235714474e-21 9.4981829249958711e-04 2.8730086802939512e-03  -2.8932170612402347e-16 -1.5254210261488924e-20 1.8420272188718144e-20 -1.5254210261488924e-20 -1.2740721015611772e-03 1.1123909018939220e-03 1.8420272188718144e-20 1.1123909018939220e-03 2.8922283588898694e-03  -1.5979980449880135e-16 -4.7222314731911893e-20 -1.8928924810305602e-20 -4.7222314731911893e-20 -1.6024648690628521e-03 1.0904435611410346e-03 -1.8928924810305602e-20 1.0904435611410346e-03 3.2736635901125587e-03  1.3036066262347216e-15 -4.4318585956638181e-20 3.7821127300918152e-22 -4.4318585956638181e-20 -1.6630970387721922e-03 1.2306799799244935e-03 3.7821127300918152e-22 1.2306799799244935e-03 3.3192710812314564e-03  3.7736358513738370e-16 -6.9334628718827600e-21 4.6640428288675942e-20 -6.9334628718827600e-21 -1.2732487205165161e-03 1.3134432836546090e-03 4.6640428288675942e-20 1.3134432836546090e-03 2.9350338627566128e-03  1.9397563572578422e-16 -5.8274076997795527e-20 -5.1051250050276980e-20 -5.8274076997795527e-20 -1.6183713715398015e-03 8.9711817307998386e-04 -5.1051250050276980e-20 8.9711817307998386e-04 3.2824928347025871e-03  1.2959094088580326e-15 -7.6765627461302309e-20 -5.7407182398562840e-20 -7.6765627461302309e-20 -1.9204285462308417e-03 1.0225971904625135e-03 -5.7407182398562840e-20 1.0225971904625135e-03 3.6168921832742521e-03  -2.3760389806805590e-15 -6.9852577006044309e-20 -3.3623205695962433e-20 -6.9852577006044309e-20 -1.9400659939199786e-03 1.2005209151767665e-03 -3.3623205695962433e-20 1.2005209151767665e-03 3.6884574917410147e-03  -1.0668552046305733e-15 -4.3933656427822196e-20 1.7928232137040663e-20 -4.3933656427822196e-20 -1.6703636406332765e-03 1.4409304700650797e-03 1.7928232137040663e-20 1.4409304700650797e-03 3.4378198676046946e-03  3.7818761248700901e-16 -2.5807582098316317e-20 4.3453415107788954e-20 -2.5807582098316317e-20 -1.5772077147085967e-03 1.4644534532845313e-03 4.3453415107788954e-20 1.4644534532845313e-03 3.2584194164434152e-03  6.7083692429955832e-15 -6.2622063968900435e-20 4.8053785437087631e-21 -6.2622063968900435e-20 -1.9335474395430520e-03 1.5088601711788871e-03 4.8053785437087631e-21 1.5088601711788871e-03 3.7366029620169430e-03  -3.0602081667095776e-14 -3.8097747370836686e-20 3.7030849070702646e-20 -3.8097747370836686e-20 -1.7837602213614835e-03 1.5984297675664550e-03 3.7030849070702646e-20 1.5984297675664550e-03 3.6272232806772698e-03  -2.6021517244179938e-15 -8.7103700291090913e-20 -7.7566123892296167e-20 -8.7103700291090913e-20 -1.9956247940638113e-03 9.4124342095500211e-04 -7.7566123892296167e-20 9.4124342095500211e-04 3.7062979339061394e-03  2.1528186833998563e-16 -8.5987273918208952e-20 -9.4802662849292431e-20 -8.5987273918208952e-20 -1.9460009517924114e-03 7.3620703601488119e-04 -9.4802662849292431e-20 7.3620703601488119e-04 3.5772189530432811e-03  -6.4963712795899147e-15 -6.1438678575817794e-20 -1.2777235647824652e-20 -6.1438678575817794e-20 -1.8995653310552947e-03 1.3405435714998447e-03 -1.2777235647824652e-20 1.3405435714998447e-03 3.7040458490906732e-03  -1.8146048179444293e-14 -9.3964702863403569e-20 -6.7009879394287071e-20 -9.3964702863403569e-20 -2.2123037660444155e-03 1.1104751857110031e-03 -6.7009879394287071e-20 1.1104751857110031e-03 3.9476792057047206e-03  1.3288960126346292e-14 -1.0196048767876183e-19 -8.8896195761635150e-20 -1.0196048767876183e-19 -2.2075240109514851e-03 9.8659926770865375e-04 -8.8896195761635150e-20 9.8659926770865375e-04 3.9453771855559733e-03  5.4359291604380030e-14 -9.7992643966242882e-20 -5.8831935505783873e-20 -9.7992643966242882e-20 -2.2773700316344068e-03 1.2612280528611108e-03 -5.8831935505783873e-20 1.2612280528611108e-03 4.0943695293450214e-03  1.9085187308891462e-14 -8.3520128971528462e-20 -2.8630687839967318e-20 -8.3520128971528462e-20 -2.2003971238068838e-03 1.4145913234708104e-03 -2.8630687839967318e-20 1.4145913234708104e-03 4.0407795042801172e-03  1.5206482833005198e-13 -6.8102875664916483e-20 9.0395463396370091e-21 -6.8102875664916483e-20 -2.0697049161681859e-03 1.6117201265252617e-03 9.0395463396370091e-21 1.6117201265252617e-03 3.9034708375461935e-03  1.0160294862512234e-13 -1.1112938571856800e-19 -8.3331096672534866e-20 -1.1112938571856800e-19 -2.4541459029011853e-03 1.1515620834873636e-03 -8.3331096672534866e-20 1.1515620834873636e-03 4.2565006133221967e-03  9.8506741818013686e-16 -1.0343658133165956e-19 -1.1027339050069190e-19 -1.0343658133165956e-19 -2.2086533265920790e-03 8.0674439886984977e-04 -1.1027339050069190e-19 8.0674439886984977e-04 3.9453031292379908e-03  -1.8334794786423076e-13 -9.0794832941645084e-20 -2.2841434316978176e-20 -9.0794832941645084e-20 -2.3105318174499187e-03 1.5551932393553071e-03 -2.2841434316978176e-20 1.5551932393553071e-03 4.1967786928954068e-03  7.9317135830642842e-15 -8.4069366808920978e-20 -3.8327260384182532e-20 -8.4069366808920978e-20 -2.1428252319425070e-03 1.3062907320448090e-03 -3.8327260384182532e-20 1.3062907320448090e-03 3.9313901622495583e-03  -3.5222175889825745e-13 -1.1825987445166487e-19 -7.9632664158523193e-20 -1.1825987445166487e-19 -2.5494647773549634e-03 1.2597636673690510e-03 -7.9632664158523193e-20 1.2597636673690510e-03 4.3731461518584230e-03  -2.5206480733990410e-13 -3.5545403466637081e-20 6.6617253837036223e-20 -3.5545403466637081e-20 -1.8605123333624025e-03 1.8846504122914656e-03 6.6617253837036223e-20 1.8846504122914656e-03 3.7894143359850580e-03  1.7185377046030791e-14 -2.5083041751547150e-20 8.7330180026264586e-20 -2.5083041751547150e-20 -1.8250724188714079e-03 1.9913146819345940e-03 8.7330180026264586e-20 1.9913146819345940e-03 3.7826452079346637e-03  9.5052067554668890e-13 -5.0636286831866407e-20 5.5244530352999358e-20 -5.0636286831866407e-20 -2.0672983359290116e-03 1.9587039255703530e-03 5.5244530352999358e-20 1.9587039255703530e-03 4.0773269536928817e-03  -1.5928548518436548e-14 -1.2060470480489331e-19 -1.1834290063650490e-19 -1.2060470480489331e-19 -2.4684445376943224e-03 8.8085720985282465e-04 -1.1834290063650490e-19 8.8085720985282465e-04 4.1894139157282835e-03  -3.7465008336173592e-14 -1.1082176945975961e-19 -8.8006515143065865e-20 -1.1082176945975961e-19 -2.3900007510126841e-03 1.0728454192403512e-03 -8.8006515143065865e-20 1.0728454192403512e-03 4.1246885060622924e-03  -1.3103705185999409e-13 -1.0486349189769080e-19 -5.5703650000779703e-20 -1.0486349189769080e-19 -2.4169271645148645e-03 1.3468701830343006e-03 -5.5703650000779703e-20 1.3468701830343006e-03 4.2250825477272193e-03  1.4593262643957006e-14 -4.4402860719116499e-20 4.6250496900771244e-20 -4.4402860719116499e-20 -1.8948216380217609e-03 1.7594963213231995e-03 4.6250496900771244e-20 1.7594963213231995e-03 3.7807485703102188e-03  4.3327308896655432e-13 -6.1215395459941616e-20 3.3911285390512797e-20 -6.1215395459941616e-20 -2.1151466645313844e-03 1.8410558053156103e-03 3.3911285390512797e-20 1.8410558053156103e-03 4.0836083383044659e-03  1.5338263903625053e-13 -1.2624384239328816e-19 -1.0261561211500851e-19 -1.2624384239328816e-19 -2.6135795329777197e-03 1.0920828091598937e-03 -1.0261561211500851e-19 1.0920828091598937e-03 4.3720967952974848e-03  -9.8003088749935980e-17 -1.1013640044272015e-19 -1.2553911063563538e-19 -1.1013640044272015e-19 -2.2503817233213404e-03 7.2501592649164574e-04 -1.2553911063563538e-19 7.2501592649164574e-04 3.9778841358458286e-03  2.4027161586535263e-13 -6.1574802204164567e-20 1.9302411065947632e-20 -6.1574802204164567e-20 -2.0715485954656710e-03 1.6695702187941750e-03 1.9302411065947632e-20 1.6695702187941750e-03 3.9537346833505771e-03  -8.9352814391672927e-13 -7.9442200757513185e-20 -2.1118743573697101e-21 -7.9442200757513185e-20 -2.2609945381070035e-03 1.6473678232358639e-03 -2.1118743573697101e-21 1.6473678232358639e-03 4.1626708661512187e-03  -4.2602170457161458e-14 -1.2320121078552535e-19 -1.0986508859306742e-19 -1.2320121078552535e-19 -2.5186861278420286e-03 1.0097479768384960e-03 -1.0986508859306742e-19 1.0097479768384960e-03 4.2979398616877912e-03  -5.8452460430848386e-13 -6.9749930093685718e-20 1.7639429948925904e-20 -6.9749930093685718e-20 -2.1567267163656477e-03 1.7605214698260619e-03 1.7639429948925904e-20 1.7605214698260619e-03 4.1035028975525672e-03  -4.1797210054483761e-13 -1.2861364248024099e-19 -9.8959321530331430e-20 -1.2861364248024099e-19 -2.6784792323703058e-03 1.1737342076872581e-03 -9.8959321530331430e-20 1.1737342076872581e-03 4.4917428917891399e-03  -1.5189307965272843e-12 -4.1896932293744975e-20 7.4553015068345872e-20 -4.1896932293744975e-20 -2.0436014753010177e-03 2.0710057011115216e-03 7.4553015068345872e-20 2.0710057011115216e-03 4.0878371162972821e-03  2.2007671399851399e-13 -1.0993761208439478e-19 -5.3188129796311990e-20 -1.0993761208439478e-19 -2.5328638364529171e-03 1.4404117340095898e-03 -5.3188129796311990e-20 1.4404117340095898e-03 4.3913795157679656e-03  -3.0365343935831305e-15 -1.2399349549689140e-19 -1.3491671693421909e-19 -1.2399349549689140e-19 -2.4672473703995076e-03 7.5919564358467866e-04 -1.3491671693421909e-19 7.5919564358467866e-04 4.1824139215420678e-03  -3.4929719378113015e-12 -6.5499974024334183e-20 4.3936340084301536e-20 -6.5499974024334183e-20 -2.2847636891688747e-03 2.0019146798537003e-03 4.3936340084301536e-20 2.0019146798537003e-03 4.3171636681287812e-03  9.4467990491491991e-13 -1.2526908869690302e-19 -7.7664585262952589e-20 -1.2526908869690302e-19 -2.6901061756995611e-03 1.3512310992976704e-03 -7.7664585262952589e-20 1.3512310992976704e-03 4.5350018804792384e-03  6.5571116302363270e-13 -1.0034411544109184e-19 -2.6897139487888096e-20 -1.0034411544109184e-19 -2.4657391637523248e-03 1.6339451524740002e-03 -2.6897139487888096e-20 1.6339451524740002e-03 4.4105263758742307e-03  -1.5703546436261619e-12 -7.4168210768032717e-20 2.6978700938362922e-20 -7.4168210768032717e-20 -2.3047544824667046e-03 1.9219376179440387e-03 2.6978700938362922e-20 1.9219376179440387e-03 4.3265289397318146e-03  -6.7640691508883831e-13 -1.3978474915361092e-19 -1.1689520786854724e-19 -1.3978474915361092e-19 -2.7985543054718006e-03 1.1075782403740285e-03 -1.1689520786854724e-19 1.1075782403740285e-03 4.6013694664585377e-03  1.6022526015533279e-12 -1.3591608132538487e-19 -9.7583450309909286e-20 -1.3591608132538487e-19 -2.7969834199258049e-03 1.2627568585768375e-03 -9.7583450309909286e-20 1.2627568585768375e-03 4.6319578492543751e-03  2.0024876246757926e-12 -1.4448657310195412e-19 -1.1542292752232130e-19 -1.4448657310195412e-19 -2.8923943279131501e-03 1.1695031057324947e-03 -1.1542292752232130e-19 1.1695031057324947e-03 4.7078364497731961e-03  6.0149060643160751e-14 -1.3657026148781331e-19 -1.2174327272292170e-19 -1.3657026148781331e-19 -2.7197926195521747e-03 1.0260755596083295e-03 -1.2174327272292170e-19 1.0260755596083295e-03 4.5048444545828254e-03  5.2112450153825726e-12 -8.9460559345026021e-20 -7.9691918914990011e-21 -8.9460559345026021e-20 -2.3934134324745406e-03 1.7204396897553360e-03 -7.9691918914990011e-21 1.7204396897553360e-03 4.3662748540172561e-03  -1.3979308277311393e-12 -8.2746339784289960e-20 9.7182925570771295e-21 -8.2746339784289960e-20 -2.3468672376670591e-03 1.8224812294776822e-03 9.7182925570771295e-21 1.8224812294776822e-03 4.3261349587963519e-03  9.6259141205124306e-13 -1.1564727749745720e-19 -5.0709204491670096e-20 -1.1564727749745720e-19 -2.6272032705177300e-03 1.5485087144792530e-03 -5.0709204491670096e-20 1.5485087144792530e-03 4.5544003758372417e-03  1.8812011581678391e-14 -1.3384907711368009e-19 -1.3942323979513107e-19 -1.3384907711368009e-19 -2.6387682161224889e-03 8.3134056632654346e-04 -1.3942323979513107e-19 8.3134056632654346e-04 4.4018645367134950e-03  1.2731764178662038e-13 -1.3382549564745084e-19 -1.2901914560001441e-19 -1.3382549564745084e-19 -2.6729847055389435e-03 9.2648919261494056e-04 -1.2901914560001441e-19 9.2648919261494056e-04 4.4393795858928926e-03  -7.0860700702574193e-12 -1.5087089305176052e-19 -1.1759588078398692e-19 -1.5087089305176052e-19 -2.9873281380947718e-03 1.2334435660771516e-03 -1.1759588078398692e-19 1.2334435660771516e-03 4.8547859246775267e-03  1.8975891195757922e-11 -5.2630016712806420e-20 6.8913693523328699e-20 -5.2630016712806420e-20 -2.2112084166779804e-03 2.1381050499017450e-03 6.8913693523328699e-20 2.1381050499017450e-03 4.2978817219187261e-03  4.1132885311259810e-12 -6.2894205333464825e-20 5.4738043998888381e-20 -6.2894205333464825e-20 -2.2701652990855152e-03 2.1154292368141185e-03 5.4738043998888381e-20 2.1154292368141185e-03 4.3819495639004389e-03  -6.0299300703534053e-11 -7.0449248428302375e-20 4.8829428107902731e-20 -7.0449248428302375e-20 -2.3798968631443640e-03 2.1458181785926666e-03 4.8829428107902731e-20 2.1458181785926666e-03 4.5227994869244635e-03  2.0192817442133338e-11 -7.4628755745429284e-20 3.6186941123587515e-20 -7.4628755745429284e-20 -2.4083339630751313e-03 2.0603371474071023e-03 3.6186941123587515e-20 2.0603371474071023e-03 4.5327301737702703e-03  4.0759049387708003e-12 -8.5234868903507659e-20 1.9966920695856126e-20 -8.5234868903507659e-20 -2.4776409138364233e-03 1.9870225061521325e-03 1.9966920695856126e-20 1.9870225061521325e-03 4.5565389725388617e-03  -2.9623019221312216e-12 -1.3165391288723528e-19 -7.8833506341897900e-20 -1.3165391288723528e-19 -2.7960532226590563e-03 1.4330294280495094e-03 -7.8833506341897900e-20 1.4330294280495094e-03 4.7105842198928508e-03  -4.4945401698187265e-12 -1.4438284442318370e-19 -1.0146910953744160e-19 -1.4438284442318370e-19 -2.9271332931198437e-03 1.3274025786067520e-03 -1.0146910953744160e-19 1.3274025786067520e-03 4.8088733195820760e-03  2.3692233884700323e-12 -1.5025403451383887e-19 -1.2703401361773790e-19 -1.5025403451383887e-19 -2.9506453938941551e-03 1.1166644254038693e-03 -1.2703401361773790e-19 1.1166644254038693e-03 4.7656795396191914e-03  -9.9642631252688689e-11 -6.3020951086943244e-20 5.9720005693731231e-20 -6.3020951086943244e-20 -2.3685613291120678e-03 2.1889614550408007e-03 5.9720005693731231e-20 2.1889614550408007e-03 4.5353795310260191e-03  -2.6235657939919706e-11 -1.0863683754440177e-19 -2.9393442203735317e-20 -1.0863683754440177e-19 -2.6123994056480009e-03 1.6983853470521290e-03 -2.9393442203735317e-20 1.6983853470521290e-03 4.5816479443699966e-03  5.8613426343568777e-13 -1.4826532261677559e-19 -1.3208928389195951e-19 -1.4826532261677559e-19 -2.9057621035287174e-03 1.0402517467666690e-03 -1.3208928389195951e-19 1.0402517467666690e-03 4.6948639903406373e-03  9.0833471948947310e-12 -9.4951002642248150e-20 5.0181979011661713e-22 -9.4951002642248150e-20 -2.5205861200056348e-03 1.8815811534023277e-03 5.0181979011661713e-22 1.8815811534023277e-03 4.5642232628256606e-03  -3.3771312097453334e-13 -1.4533032923149554e-19 -1.4685302317861543e-19 -1.4533032923149554e-19 -2.8335596989658113e-03 8.6810997433647797e-04 -1.4685302317861543e-19 8.6810997433647797e-04 4.5972100625347448e-03  -8.0925735193968511e-12 -1.5802856836751712e-19 -1.3313339143395486e-19 -1.5802856836751712e-19 -3.0745837940722495e-03 1.1459343743983261e-03 -1.3313339143395486e-19 1.1459343743983261e-03 4.9179808884386479e-03  -3.3561257137061991e-12 -9.8736183919764887e-20 -1.2127762331181673e-20 -9.8736183919764887e-20 -2.5243348205184648e-03 1.7899653466537217e-03 -1.2127762331181673e-20 1.7899653466537217e-03 4.5440668863395853e-03  1.1863117904467199e-11 -1.3501939134692044e-19 -7.2049911678454760e-20 -1.3501939134692044e-19 -2.8820945247473298e-03 1.5212659668054625e-03 -7.2049911678454760e-20 1.5212659668054625e-03 4.7902691814020303e-03  1.8327530144644823e-11 -1.1700704792299306e-19 -4.3254473952118781e-20 -1.1700704792299306e-19 -2.6817366721365835e-03 1.6297311876786215e-03 -4.3254473952118781e-20 1.6297311876786215e-03 4.6125908255378037e-03  -5.7959275571416328e-12 -1.5860232419158342e-19 -1.4252149270146231e-19 -1.5860232419158342e-19 -3.0598767025093528e-03 1.0598676866937725e-03 -1.4252149270146231e-19 1.0598676866937725e-03 4.8899255574779777e-03  -3.8125308647126949e-11 -1.2503164080415695e-19 -5.1969457692240805e-20 -1.2503164080415695e-19 -2.8019609840093463e-03 1.6366839459695842e-03 -5.1969457692240805e-20 1.6366839459695842e-03 4.7591575171470821e-03  -5.2575006277034669e-13 -1.4590738265957156e-19 -1.3815792789221114e-19 -1.4590738265957156e-19 -2.8618317341253079e-03 9.5901374687946028e-04 -1.3815792789221114e-19 9.5901374687946028e-04 4.6402574604224572e-03  -4.9844208620432116e-11 -8.3661397785325032e-20 3.1068871022639024e-20 -8.3661397785325032e-20 -2.5333847025503123e-03 2.1140796579117225e-03 3.1068871022639024e-20 2.1140796579117225e-03 4.6947471352786554e-03  -3.5601446155944477e-11 -9.1318399796886170e-20 1.8889515833702984e-20 -9.1318399796886170e-20 -2.5798592909845081e-03 2.0492760561047220e-03 1.8889515833702984e-20 2.0492760561047220e-03 4.6930820209221524e-03  -4.0879483813825656e-11 -1.2864180882661822e-19 -6.3801379213376887e-20 -1.2864180882661822e-19 -2.8203714835404125e-03 1.5665586119931510e-03 -6.3801379213376887e-20 1.5665586119931510e-03 4.7854272871887373e-03  1.7919746922936995e-11 -1.4428729856893807e-19 -9.2163968120921497e-20 -1.4428729856893807e-19 -2.9891819460405112e-03 1.4356939011408243e-03 -9.2163968120921497e-20 1.4356939011408243e-03 4.9215993378298566e-03  1.4766722172362368e-10 -1.2383970106304860e-19 -4.5918526155043850e-20 -1.2383970106304860e-19 -2.8002555907294061e-03 1.7074901177826474e-03 -4.5918526155043850e-20 1.7074901177826474e-03 4.8115330245088635e-03  8.7810574467493376e-12 -1.0254324193693484e-19 -2.0298957490699409e-21 -1.0254324193693484e-19 -2.6631470155121656e-03 1.9299271939412221e-03 -2.0298957490699409e-21 1.9299271939412221e-03 4.7123139472065789e-03  5.0487417228110005e-10 -7.8983531868054582e-20 4.1218660232329262e-20 -7.8983531868054582e-20 -2.5130493262151702e-03 2.1791464026489119e-03 4.1218660232329262e-20 2.1791464026489119e-03 4.7059729510520324e-03  6.6182418918053585e-13 -1.5745248149527313e-19 -1.4851212929721937e-19 -1.5745248149527313e-19 -3.0360339140719653e-03 9.7823347032514234e-04 -1.4851212929721937e-19 9.7823347032514234e-04 4.8314457887349465e-03  3.1809169935094592e-11 -1.5745935005410206e-19 -1.2076490645131041e-19 -1.5745935005410206e-19 -3.1084828792636234e-03 1.2635043554953455e-03 -1.2076490645131041e-19 1.2635043554953455e-03 4.9744633237283689e-03  3.0538401826715528e-12 -1.4762009379236018e-19 -9.6713581650901987e-20 -1.4762009379236018e-19 -3.0143665815155268e-03 1.3997948974275351e-03 -9.6713581650901987e-20 1.3997948974275351e-03 4.8969061860343367e-03  1.2992892988257499e-10 -9.8157750634983344e-20 1.4042928832128567e-20 -9.8157750634983344e-20 -2.6899955932049606e-03 2.0930261948790426e-03 1.4042928832128567e-20 2.0930261948790426e-03 4.8548204898656759e-03  3.0015656170273536e-11 -1.6380345983325531e-19 -1.3347545935383205e-19 -1.6380345983325531e-19 -3.1528838075891318e-03 1.2052135270091469e-03 -1.3347545935383205e-19 1.2052135270091469e-03 5.0169702350065862e-03  1.5434507089286237e-11 -1.5773559965252001e-19 -1.1565530593083161e-19 -1.5773559965252001e-19 -3.1246521232361508e-03 1.3348663392226167e-03 -1.1565530593083161e-19 1.3348663392226167e-03 5.0363336520519719e-03  2.5503957990950393e-10 -7.1848342980351670e-20 5.2337014273629751e-20 -7.1848342980351670e-20 -2.5008498969391431e-03 2.2200177752142616e-03 5.2337014273629751e-20 2.2200177752142616e-03 4.7037614428311440e-03  -8.6199265914635103e-11 -1.4823214755390002e-19 -8.9948020869997330e-20 -1.4823214755390002e-19 -3.0420646147758666e-03 1.5093089562765120e-03 -8.9948020869997330e-20 1.5093089562765120e-03 5.0107288700688979e-03  -1.1803362396360196e-10 -1.3236422742973820e-19 -5.8783204985063566e-20 -1.3236422742973820e-19 -2.9160586154807549e-03 1.6651739400401684e-03 -5.8783204985063566e-20 1.6651739400401684e-03 4.9208883984401507e-03  -5.2722482784768172e-11 -9.9377095924834665e-20 5.4489913943741067e-21 -9.9377095924834665e-20 -2.65459