<?xml version="1.0"?>
<VTKFile type="UnstructuredGrid"  version="0.1"  >
<UnstructuredGrid>
<Piece  NumberOfPoints="10101" NumberOfCells="19808">
<Points>
<DataArray  type="Float64"  NumberOfComponents="3"  format="ascii">4.054103932234444e-23 9.668484844120507e-07 4.918726524140444e-08  4.05039329194145e-23 9.667857187595548e-07 4.945872435372525e-08  4.053188850666777e-23 9.669815769229369e-07 4.940278097243381e-08  4.056530826229038e-23 9.671204961754646e-07 4.92406818270239e-08  4.050537333608173e-23 9.669873641351116e-07 4.964739560935038e-08  4.047465830933096e-23 9.667477110252172e-07 4.968439886551487e-08  4.213239664262111e-23 9.665522719745353e-07 3.455738033466632e-08  4.209648610453712e-23 9.663157702113478e-07 3.464433194334632e-08  4.209498419649699e-23 9.664736208813649e-07 3.481571059834312e-08  4.202905465386593e-23 9.669133046878183e-07 3.584923493204844e-08  4.201636568197259e-23 9.667024088588895e-07 3.575263120130086e-08  4.199364101834488e-23 9.667468083613813e-07 3.600171627708436e-08  4.050039254686825e-23 9.666025133057534e-07 4.930740774088382e-08  4.057509323459371e-23 9.668314134701187e-07 4.886346392643973e-08  4.053082723725921e-23 9.666066408352682e-07 4.9037403949791e-08  4.05476916009498e-23 9.671898646041343e-07 4.946872703459145e-08  4.055882787078781e-23 9.665737785238864e-07 4.875233435295812e-08  4.189816144664103e-23 9.66746091735303e-07 3.686100317809993e-08  4.186309200165198e-23 9.665864192159398e-07 3.701720813750625e-08  4.187775385012511e-23 9.667981541501574e-07 3.709688088108365e-08  4.049048778005247e-23 9.663873524526028e-07 4.918146109601478e-08  4.191752959001222e-23 9.666941255283598e-07 3.663458424461811e-08  4.188405836999669e-23 9.665397564065131e-07 3.678169707075058e-08  4.205172578938783e-23 9.66878311362611e-07 3.561003817186411e-08  4.046930647734097e-23 9.665742826594294e-07 4.955917551683886e-08  4.044201047735455e-23 9.665702024906113e-07 4.980095585875582e-08  4.205643681984082e-23 9.664027009498198e-07 3.509199456908776e-08  4.206852570976105e-23 9.662813570108587e-07 3.486176358984652e-08  4.209301297976739e-23 9.66633887663274e-07 3.49937325221101e-08  4.051800373672673e-23 9.663757034788754e-07 4.892197041783749e-08  4.195746733131787e-23 9.665743885783101e-07 3.615512010084401e-08  4.197274292453497e-23 9.667912609159967e-07 3.623440212668986e-08  4.197841076679054e-23 9.665197150948065e-07 3.591180492095931e-08  4.200195011644936e-23 9.664770666525813e-07 3.565713286603009e-08  4.203995345311975e-23 9.666652445683628e-07 3.550300715607644e-08  4.207601929518653e-23 9.668470856784211e-07 3.535999604034919e-08  4.046331650467893e-23 9.663908948616112e-07 4.94297405963181e-08  4.206566192066895e-23 9.666360366051882e-07 3.524223790315209e-08  4.202782051846897e-23 9.664400855788234e-07 3.538713192648125e-08  4.04521314143797e-23 9.661792649673132e-07 4.931885703902746e-08  4.190275988410516e-23 9.664817449342765e-07 3.655523733457365e-08  4.193758748542527e-23 9.666351898508859e-07 3.639498310652801e-08  4.215848158711895e-23 9.665235754557057e-07 3.42937315231958e-08  4.212505158001392e-23 9.66364824043624e-07 3.443609084619648e-08  4.184208854195985e-23 9.666260848296041e-07 3.724605609765657e-08  4.04764691118071e-23 9.661615855195114e-07 4.908196310109549e-08  4.192229614003324e-23 9.664182459386035e-07 3.631577138906483e-08  3.704894367824063e-23 9.291990787123774e-07 4.299186082478721e-08  3.673289655118805e-23 9.281533333411749e-07 4.479281490083575e-08  3.695793890541615e-23 9.298395777971195e-07 4.44520580314918e-08  3.733177242473284e-23 9.304207376921051e-07 4.166602492989096e-08  3.719911778633508e-23 9.308501685530574e-07 4.329030255095743e-08  3.679480328848397e-23 9.300936750042505e-07 4.617555024587617e-08  3.647128412515278e-23 9.283707703360788e-07 4.736664714455544e-08  3.60854246820572e-23 9.267255160493978e-07 4.919690574615976e-08  3.628869553738912e-23 9.287397681309766e-07 4.938025673108233e-08  3.569473611955285e-23 9.255256531259931e-07 5.151605255178011e-08  3.599153402461576e-23 9.277670018348062e-07 5.108408339130184e-08  3.707242103949365e-23 9.31257294709724e-07 4.483861155135233e-08  3.741877039023056e-23 9.317905332045106e-07 4.225221243230138e-08  3.757406067509398e-23 9.31550826968658e-07 4.061377565835848e-08  4.054224029018837e-23 9.663326498325946e-07 4.86606133052795e-08  3.730702632592857e-23 9.322046181779891e-07 4.367279845848248e-08  3.750982852777915e-23 9.330323417870073e-07 4.267384222613236e-08  3.656805010457186e-23 9.299279082023245e-07 4.805219455309339e-08  3.644315920830489e-23 9.30393407828152e-07 4.964261136670062e-08  3.678339018513915e-23 9.311356135728374e-07 4.732028891040466e-08  3.7643431279271e-23 9.327298486952824e-07 4.116796253073864e-08  3.777901601996191e-23 9.326243451412419e-07 3.984122020139273e-08  3.718852053147789e-23 9.325817765811009e-07 4.511736216505286e-08  3.620636372127154e-23 9.295277543621742e-07 5.090982203505562e-08  3.667066206460647e-23 9.314429309203339e-07 4.864297090115151e-08  3.697655528765374e-23 9.318031286366321e-07 4.624792740678801e-08  3.741453695566951e-23 9.335570092476853e-07 4.405681986409939e-08  3.688929112676642e-23 9.323857392896254e-07 4.761654374469122e-08  3.654899159311823e-23 9.317052009691058e-07 5.000115113003628e-08  3.71004433566466e-23 9.331129376999168e-07 4.644185194736896e-08  3.761131738298219e-23 9.341324345790012e-07 4.28598046771769e-08  3.781930829969515e-23 9.336104125707162e-07 4.046436703888197e-08  3.676774035714313e-23 9.327414752448555e-07 4.906711170148544e-08  4.210135011531676e-23 9.668363144449761e-07 3.512106506270518e-08  3.701237325018114e-23 9.336817332467312e-07 4.780391249150402e-08  3.79619500140237e-23 9.336403573041074e-07 3.920950942927813e-08  3.770690654172098e-23 9.337950566037555e-07 4.166143610257781e-08  3.756594550842118e-23 9.347515574835643e-07 4.388760109647212e-08  3.72732188165452e-23 9.336687893160956e-07 4.544148056991156e-08  3.636515246209674e-23 9.308567250648476e-07 5.08085509097071e-08  3.660986291414512e-23 9.328448219182983e-07 5.05924919618403e-08  3.725882365985386e-23 9.344066525204656e-07 4.630900381890362e-08  3.620067801621963e-23 9.306719675347172e-07 5.210524748590491e-08  3.797682897818549e-23 9.344551259662505e-07 3.98902602965118e-08  3.742557577918e-23 9.345886375825174e-07 4.498901931603453e-08  3.771599579619788e-23 9.351526894191682e-07 4.293720019184006e-08  3.786886270103758e-23 9.34514148496711e-07 4.092175659803617e-08  3.641403151854613e-23 9.319397850655769e-07 5.145134750961299e-08  3.676605874579201e-23 9.33566182046378e-07 4.990696511151642e-08  3.777852238115891e-23 9.347411615087459e-07 4.196248287195527e-08  3.768516546434916e-23 9.356348522725495e-07 4.369705798727253e-08  3.689340994730613e-23 9.338176734682654e-07 4.901137888603561e-08  3.716910193579864e-23 9.348061611517237e-07 4.7516653896206e-08  3.624801155747243e-23 9.320069738763048e-07 5.301391118999613e-08  3.688853662305508e-23 9.345508669552003e-07 4.978846737553264e-08  3.649287624924813e-23 9.332712030766621e-07 5.20725953210788e-08  3.800488007977753e-23 9.351939753878112e-07 4.037644785671806e-08  3.670163695739338e-23 9.339220432168551e-07 5.084308616644687e-08  3.780386480327097e-23 9.359502280484935e-07 4.294328516614173e-08  3.702380670533154e-23 9.345883049698551e-07 4.860750080591805e-08  3.734211049656741e-23 9.354442769486117e-07 4.65964471134738e-08  3.792033747367662e-23 9.353364983983071e-07 4.128046296587985e-08  3.630259183841301e-23 9.333816847917965e-07 5.389700663967623e-08  3.810879883206638e-23 9.352131930131312e-07 3.945964857386831e-08  3.744319687968098e-23 9.353987818751668e-07 4.564044684538382e-08  3.785005420553027e-23 9.356095889675505e-07 4.218660893559195e-08  3.778114814646154e-23 9.363585342088862e-07 4.355620478081861e-08  3.714363991160391e-23 9.353422159613821e-07 4.828205023121538e-08  3.680909202960643e-23 9.348971861744073e-07 5.085035987764338e-08  3.756552420625857e-23 9.354587668791478e-07 4.459860524458068e-08  3.812399189810906e-23 9.358409673547539e-07 3.995057594235408e-08  3.665460241506309e-23 9.345066347443517e-07 5.185132718856792e-08  3.650953765965863e-23 9.342376156032894e-07 5.288893520427381e-08  3.787952524577489e-23 9.366423637429128e-07 4.295393217922643e-08  3.72625957465888e-23 9.356216571712254e-07 4.749003253283561e-08  3.797465719551893e-23 9.361138418374986e-07 4.156853784697562e-08  3.791828017035121e-23 9.363656454246165e-07 4.232814053316874e-08  3.695616421915901e-23 9.354699441368057e-07 5.00984093239107e-08  3.759403050128077e-23 9.3619778459691e-07 4.508086108306354e-08  3.821380520964545e-23 9.35882376151544e-07 3.918301834640778e-08  3.768493771901191e-23 9.362306989122621e-07 4.429495597461709e-08  3.804767122261425e-23 9.359465389478015e-07 4.074358306684002e-08  3.704271533601226e-23 9.35326589604151e-07 4.91754716360384e-08  3.647965769486686e-23 9.34956524688344e-07 5.387697908593248e-08  3.738930728257247e-23 9.361451572908592e-07 4.687221659999026e-08  3.74943906268471e-23 9.362709821771635e-07 4.605153486605848e-08  3.732453454459758e-23 9.363169640721263e-07 4.762744433847235e-08  3.688758599246424e-23 9.356496905061926e-07 5.089585344567426e-08  3.785739886404594e-23 9.369440123574251e-07 4.345487752275779e-08  3.771182446873775e-23 9.36843327832681e-07 4.466541058294305e-08  3.821824302604666e-23 9.363413750338055e-07 3.960204493208765e-08  3.664830609614711e-23 9.351915359599346e-07 5.259294060319835e-08  3.778571497086244e-23 9.368809664119602e-07 4.403750268655225e-08  3.716544769916465e-23 9.35982550208176e-07 4.87259573901446e-08  3.742338425858931e-23 9.367488565998516e-07 4.7168977796e-08  3.723066611431025e-23 9.359396519199995e-07 4.809562384167325e-08  3.802718532296704e-23 9.368206243702561e-07 4.180218906932963e-08  3.797999073612487e-23 9.370400030560735e-07 4.244665880257957e-08  3.794144267639824e-23 9.372943018451553e-07 4.304816764650276e-08  3.831663492303966e-23 9.361226557200345e-07 3.84970
[...]
<PointData  Tensors="f_71"> 
<DataArray  type="Float64"  Name="f_71"  NumberOfComponents="9" format="ascii">-1.0855952124234147e+09 8.4320497517062971e-08 5.0741205236223745e-08 8.4320497517062971e-08 -1.7161025582473758e+08 9.2235170863297805e+06 5.0741205236223745e-08 9.2235170863297805e+06 -4.3026533983076239e+08  -1.0858515144905288e+09 8.4343933839125934e-08 5.0710009695588547e-08 8.4343933839125934e-08 -1.7200358058525047e+08 8.3426741383576877e+06 5.0710009695588547e-08 8.3426741383576877e+06 -4.3068504213867015e+08  -1.0853956549682951e+09 8.4396177012277918e-08 5.0806220208993398e-08 8.4396177012277918e-08 -1.7124572861303973e+08 8.7370206376883667e+06 5.0806220208993398e-08 8.7370206376883667e+06 -4.3099281706562793e+08  -1.0853684360284343e+09 8.4393978641743985e-08 5.0895931765946062e-08 8.4393978641743985e-08 -1.7105387526427996e+08 9.4583111404222213e+06 5.0895931765946062e-08 9.4583111404222213e+06 -4.3156978378270996e+08  -1.0854120963630009e+09 8.4416680869894669e-08 5.0796640607697362e-08 8.4416680869894669e-08 -1.7129963258297974e+08 8.1021048546470180e+06 5.0796640607697362e-08 8.1021048546470180e+06 -4.3134590812677830e+08  -1.0857372496692061e+09 8.4350529801042589e-08 5.0670574866369453e-08 8.4350529801042589e-08 -1.7211124437840685e+08 7.7507651869362826e+06 5.0670574866369453e-08 7.7507651869362826e+06 -4.3064078805577123e+08  -1.0730297297124242e+09 8.2611775994258090e-08 4.8374625547287308e-08 8.2611775994258090e-08 -1.5052488067505518e+08 4.9156756174981371e+07 4.8374625547287308e-08 4.9156756174981371e+07 -3.5807138585531813e+08  -1.0736471332893919e+09 8.2579433334580910e-08 4.8154971851001261e-08 8.2579433334580910e-08 -1.5155023592186415e+08 4.7093744104040876e+07 4.8154971851001261e-08 4.7093744104040876e+07 -3.5753957930795056e+08  -1.0737654492526612e+09 8.2603612862485249e-08 4.8362804359147837e-08 8.2603612862485249e-08 -1.5176205669853297e+08 4.7738082945528306e+07 4.8362804359147837e-08 4.7738082945528306e+07 -3.5993747308797002e+08  -1.0749582778928289e+09 8.2722666014399161e-08 4.9089424124306333e-08 8.2722666014399161e-08 -1.5360696643488622e+08 4.8181540439807326e+07 4.9089424124306333e-08 4.8181540439807326e+07 -3.7039921440721416e+08  -1.0751121819820366e+09 8.2680133123035072e-08 4.8843011684647490e-08 8.2680133123035072e-08 -1.5400075551809096e+08 4.6805348912319317e+07 4.8843011684647490e-08 4.6805348912319317e+07 -3.6854673373985225e+08  -1.0754701310888982e+09 8.2707041828819135e-08 4.8950514850363279e-08 8.2707041828819135e-08 -1.5454224028109047e+08 4.6408971886287227e+07 4.8950514850363279e-08 4.6408971886287227e+07 -3.7061321731403273e+08  -1.0859405060524702e+09 8.4285912658677387e-08 5.0619347236619037e-08 8.4285912658677387e-08 -1.7228510465467295e+08 8.5738690418509394e+06 5.0619347236619037e-08 8.5738690418509394e+06 -4.2964265658339328e+08  -1.0856166734431365e+09 8.4285867483454813e-08 5.0747132063169679e-08 8.4285867483454813e-08 -1.7160601473001957e+08 1.0035553806735255e+07 5.0747132063169679e-08 1.0035553806735255e+07 -4.2981230908486193e+08  -1.0859022774869466e+09 8.4256388010640800e-08 5.0631730095823626e-08 8.4256388010640800e-08 -1.7218916382502875e+08 9.2556208756043483e+06 5.0631730095823626e-08 9.2556208756043483e+06 -4.2933225020488852e+08  -1.0851267361389818e+09 8.4443127749953344e-08 5.0908960946899690e-08 8.4443127749953344e-08 -1.7068438315821213e+08 8.8683120674730763e+06 5.0908960946899690e-08 8.8683120674730763e+06 -4.3180456398278058e+08  -1.0858873049288964e+09 8.4214429157648948e-08 5.0610895976686751e-08 8.4214429157648948e-08 -1.7217412843419471e+08 9.9194203859164584e+06 5.0610895976686751e-08 9.9194203859164584e+06 -4.2866654864402294e+08  -1.0767628244332278e+09 8.2758878428616804e-08 4.9164269306341462e-08 8.2758878428616804e-08 -1.5682814868921080e+08 4.3917015985784940e+07 4.9164269306341462e-08 4.3917015985784940e+07 -3.7695429974369788e+08  -1.0772132475033224e+09 8.2743560220985491e-08 4.9044555166833800e-08 8.2743560220985491e-08 -1.5768326327128515e+08 4.2359229390773207e+07 4.9044555166833800e-08 4.2359229390773207e+07 -3.7720091863585097e+08  -1.0771144805909393e+09 8.2788633156606883e-08 4.9266034666654677e-08 8.2788633156606883e-08 -1.5730464243750733e+08 4.3559076826753922e+07 4.9266034666654677e-08 4.3559076826753922e+07 -3.7885250838011420e+08  -1.0862627771891863e+09 8.4221774298428433e-08 5.0516201320885417e-08 8.4221774298428433e-08 -1.7286872172386208e+08 8.5318616803452633e+06 5.0516201320885417e-08 8.5318616803452633e+06 -4.2888233115388364e+08  -1.0765300398895628e+09 8.2741116453026781e-08 4.9056913477022508e-08 8.2741116453026781e-08 -1.5641336782779354e+08 4.4162056357128501e+07 4.9056913477022508e-08 4.4162056357128501e+07 -3.7504302290692282e+08  -1.0769963570655177e+09 8.2732010121541776e-08 4.8952110574349380e-08 8.2732010121541776e-08 -1.5720106795484704e+08 4.2681677677323878e+07 4.8952110574349380e-08 4.2681677677323878e+07 -3.7537139183352941e+08  -1.0746091513420138e+09 8.2704764191566761e-08 4.8994011101267972e-08 8.2704764191566761e-08 -1.5300537673165157e+08 4.8641406228600845e+07 4.8994011101267972e-08 4.8641406228600845e+07 -3.6836645068518841e+08  -1.0861532761939373e+09 8.4316600378806400e-08 5.0600392851848027e-08 8.4316600378806400e-08 -1.7246843901716489e+08 7.8448202466013506e+06 5.0600392851848027e-08 7.8448202466013506e+06 -4.2996120479386127e+08  -1.0861989020222256e+09 8.4358605314635713e-08 5.0589279077901134e-08 8.4358605314635713e-08 -1.7249895448402309e+08 7.0908768369786758e+06 5.0589279077901134e-08 7.0908768369786758e+06 -4.3024927091214526e+08  -1.0744976828460643e+09 8.2607249739086178e-08 4.8364372956212180e-08 8.2607249739086178e-08 -1.5295290057846853e+08 4.6364801348520502e+07 4.8364372956212180e-08 4.6364801348520502e+07 -3.6185610522877514e+08  -1.0742478689196339e+09 8.2568748043572661e-08 4.8183718773598770e-08 8.2568748043572661e-08 -1.5256343553473482e+08 4.6180719067299314e+07 4.8183718773598770e-08 4.6180719067299314e+07 -3.5942701780300617e+08  -1.0739316497215025e+09 8.2626069036650640e-08 4.8571926864255128e-08 8.2626069036650640e-08 -1.5199591162925765e+08 4.8506677563956715e+07 4.8571926864255128e-08 4.8506677563956715e+07 -3.6226320477666038e+08  -1.0862247806080959e+09 8.4193157959036172e-08 5.0510725026882010e-08 8.4193157959036172e-08 -1.7281349944946957e+08 9.1539835308560561e+06 5.0510725026882010e-08 9.1539835308560561e+06 -4.2837077658406150e+08  -1.0759512543261232e+09 8.2694612575036291e-08 4.8828914947099169e-08 8.2694612575036291e-08 -1.5544337372844082e+08 4.4736018949583150e+07 4.8828914947099169e-08 4.4736018949583150e+07 -3.7094632537184674e+08  -1.0757545300138190e+09 8.2728978639487282e-08 4.9062137534757562e-08 8.2728978639487282e-08 -1.5506047942382413e+08 4.6079919453120194e+07 4.9062137534757562e-08 4.6079919453120194e+07 -3.7268736996773773e+08  -1.0756124602856658e+09 8.2673492059955189e-08 4.8714478836178798e-08 8.2673492059955189e-08 -1.5489419479163519e+08 4.5037005603909127e+07 4.8714478836178798e-08 4.5037005603909127e+07 -3.6882908436226100e+08  -1.0752708855356734e+09 8.2650422859095012e-08 4.8601249714264010e-08 8.2650422859095012e-08 -1.5431693988740543e+08 4.5415688250938684e+07 4.8601249714264010e-08 4.5415688250938684e+07 -3.6665748035447651e+08  -1.0747667652008095e+09 8.2662598266525006e-08 4.8742156486149978e-08 8.2662598266525006e-08 -1.5337355120998052e+08 4.7278293803283326e+07 4.8742156486149978e-08 4.7278293803283326e+07 -3.6640898084728289e+08  -1.0741794247130165e+09 8.2675660122047617e-08 4.8895920558367538e-08 8.2675660122047617e-08 -1.5238738439132085e+08 4.9164668046022534e+07 4.8895920558367538e-08 4.9164668046022534e+07 -3.6628996149612170e+08  -1.0863436003532703e+09 8.4256897156312276e-08 5.0511276323587090e-08 8.4256897156312276e-08 -1.7292617170682505e+08 7.8941565229849471e+06 5.0511276323587090e-08 7.8941565229849471e+06 -4.2921610410372013e+08  -1.0743410359883680e+09 8.2635367658951643e-08 4.8648325358288406e-08 8.2635367658951643e-08 -1.5271370849956179e+08 4.7908858717313915e+07 4.8648325358288406e-08 4.7908858717313915e+07 -3.6426343136257803e+08  -1.0748293045552247e+09 8.2627846145562666e-08 4.8480459963611209e-08 8.2627846145562666e-08 -1.5358337974536589e+08 4.5846895599228017e+07 4.8480459963611209e-08 4.5846895599228017e+07 -3.6424165471989149e+08  -1.0865282880566828e+09 8.4199742600644354e-08 5.0413134249750470e-08 8.4199742600644354e-08 -1.7337363731151149e+08 7.8712408619356435e+06 5.0413134249750470e-08 7.8712408619356435e+06 -4.2838357194619948e+08  -1.0767220329547217e+09 8.2713959466320707e-08 4.8836598795673482e-08 8.2713959466320707e-08 -1.5679073825802594e+08 4.2848811749088496e+07 4.8836598795673482e-08 4.2848811749088496e+07 -3.7340921766674358e+08  -1.0763099741306543e+09 8.2720478038191434e-08 4.8944324477973422e-08 8.2720478038191434e-08 -1.5596674676844463e+08 4.4443643224982835e+07 4.8944324477973422e-08 4.4443643224982835e+07 -3.7303039664295024e+08  -1.0726148185611304e+09 8.2591325216154142e-08 4.8275654513537160e-08 8.2591325216154142e-08 -1.5004279357525945e+08 4.9603267018151350e+07 4.8275654513537160e-08 4.9603267018151350e+07 -3.5604390083879131e+08  -1.0733258912288511e+09 8.2609943595641868e-08 4.8148204127113593e-08 8.2609943595641868e-08 -1.5086069992579120e+08 4.7686742919958912e+07 4.8148204127113593e-08 4.7686742919958912e+07 -3.5632347387712216e+08  -1.0775199176281121e+09 8.2769551141748812e-08 4.9141505561753278e-08 8.2769551141748812e-08 -1.5815686296091238e+08 4.1990990618017659e+07 4.9141505561753278e-08 4.1990990618017659e+07 -3.7905389602668238e+08  -1.0865314183221128e+09 8.4168014825901700e-08 5.0407390891874423e-08 8.4168014825901700e-08 -1.7338135322581959e+08 8.4449695313045625e+06 5.0407390891874423e-08 8.4449695313045625e+06 -4.2796912802428526e+08  -1.0764514787707932e+09 8.2678722577703158e-08 4.8709037464316606e-08 8.2678722577703158e-08 -1.5639547679087475e+08 4.3037013756868452e+07 4.8709037464316606e-08 4.3037013756868452e+07 -3.7137793409862381e+08  3.3138945291348677e+06 -1.0973252287923515e-08 -3.1901261165824907e-08 -1.0973252287923515e-08 -7.1465649158670846e+06 -6.3907062796376064e+07 -3.1901261165824907e-08 -6.3907062796376064e+07 3.5827333720245713e+08  7.1633165717117479e+06 -1.0385655691864446e-08 -2.9767628924483767e-08 -1.0385655691864446e-08 3.1245869630603609e+05 -4.8653917852798596e+07 -2.9767628924483767e-08 -4.8653917852798596e+07 3.4800329952214676e+08  2.7122566481606606e+06 -1.1714850981054164e-08 -3.2696544473682409e-08 -1.1714850981054164e-08 -8.9175081939107832e+06 -5.3457636260646954e+07 -3.2696544473682409e-08 -5.3457636260646954e+07 3.7625236843778068e+08  2.4009772646261579e+06 -1.1277397860459336e-08 -3.3812478212916606e-08 -1.1277397860459336e-08 -9.4107320810437873e+06 -7.4718502691800788e+07 -3.3812478212916606e-08 -7.4718502691800788e+07 3.7410807678012556e+08  7.8568373029988224e+05 -1.1766784783139020e-08 -3.4128939470426030e-08 -1.1766784783139020e-08 -1.2783686189052025e+07 -6.4903589576772988e+07 -3.4128939470426030e-08 -6.4903589576772988e+07 3.8499259442678756e+08  -8.3713878877664998e+05 -1.1842894180329571e-08 -3.1949448957866025e-08 -1.1842894180329571e-08 -1.5258581185192531e+07 -4.3972733926036440e+07 -3.1949448957866025e-08 -4.3972733926036440e+07 3.7120314133924991e+08  4.8615166360607641e+06 -1.0587039619414290e-08 -2.9402931502860885e-08 -1.0587039619414290e-08 -4.1269721501048538e+06 -3.5344752631159969e+07 -2.9402931502860885e-08 -3.5344752631159969e+07 3.5358249194378597e+08  8.1477853079031389e+06 -1.0038658956680338e-08 -2.6972053768801588e-08 -1.0038658956680338e-08 2.5340186403553709e+06 -2.0956115562703624e+07 -2.6972053768801588e-08 -2.0956115562703624e+07 3.3688192027104288e+08  3.1887466593067218e+06 -1.1339136167611168e-08 -2.9515934075960240e-08 -1.1339136167611168e-08 -7.5780075860551922e+06 -2.1296258492973078e+07 -2.9515934075960240e-08 -2.1296258492973078e+07 3.6371958577996045e+08  1.1798919738814605e+07 -9.1128361667888615e-09 -2.4141150698602327e-08 -9.1128361667888615e-09 9.8943700032622796e+06 -4.3619657484253542e+06 -2.4141150698602327e-08 -4.3619657484253542e+06 3.1941461867004007e+08  5.7732231562816361e+06 -1.1068555596301087e-08 -2.7647837158547645e-08 -1.1068555596301087e-08 -2.4351897029581107e+06 -7.1020733666322334e+06 -2.7647837158547645e-08 -7.1020733666322334e+06 3.5317485578862053e+08  -3.9622743479918088e+06 -1.2633278140345515e-08 -3.4081709789585919e-08 -1.2633278140345515e-08 -2.1584639946788099e+07 -5.3290302973055765e+07 -3.4081709789585919e-08 -5.3290302973055765e+07 3.8685949118742776e+08  -2.6240431578036589e+06 -1.2237703817297220e-08 -3.5695238319538123e-08 -1.2237703817297220e-08 -1.9398567340694785e+07 -7.3839819005538568e+07 -3.5695238319538123e-08 -7.3839819005538568e+07 3.9430207922339451e+08  -2.4877468568802922e+05 -1.1811646798088932e-08 -3.5657784781455516e-08 -1.1811646798088932e-08 -1.4778359291666638e+07 -8.4053285517087594e+07 -3.5657784781455516e-08 -8.4053285517087594e+07 3.8748739856289136e+08  -1.0862209757567596e+09 8.4152392404181826e-08 5.0493756985390032e-08 8.4152392404181826e-08 -1.7279773563329947e+08 9.7868933386235256e+06 5.0493756985390032e-08 9.7868933386235256e+06 -4.2778676407996190e+08  -5.9420749216975635e+06 -1.3018005164955821e-08 -3.5773103689056202e-08 -1.3018005164955821e-08 -2.5703282549069162e+07 -6.2285007807835311e+07 -3.5773103689056202e-08 -6.2285007807835311e+07 3.9978211059073341e+08  -7.1606473477706248e+06 -1.3179949366216127e-08 -3.7255592260970959e-08 -1.3179949366216127e-08 -2.8368944999323659e+07 -7.1610234128001049e+07 -3.7255592260970959e-08 -7.1610234128001049e+07 4.1127047361709273e+08  4.2122416997091140e+05 -1.1657638165800876e-08 -3.1342551188375182e-08 -1.1657638165800876e-08 -1.3166855677512711e+07 -3.1728879522249442e+07 -3.1342551188375182e-08 -3.1728879522249442e+07 3.7722416817708278e+08  -2.4444557794831586e+06 -1.2540057437798672e-08 -3.1439385618817338e-08 -1.2540057437798672e-08 -1.8649727968718681e+07 -1.9747979770885378e+07 -3.1439385618817338e-08 -1.9747979770885378e+07 3.8297683405904901e+08  -6.0290584683686765e+06 -1.2783572897271373e-08 -3.3070494166185551e-08 -1.2783572897271373e-08 -2.5383171249869954e+07 -3.6167448376599416e+07 -3.3070494166185551e-08 -3.6167448376599416e+07 3.8679223479855877e+08  -4.7365334268632401e+06 -1.2629580671999360e-08 -3.7180903474097780e-08 -1.2629580671999360e-08 -2.3679428207457505e+07 -8.1701787339946210e+07 -3.7180903474097780e-08 -8.1701787339946210e+07 4.0501109033241463e+08  -2.8982898736809995e+06 -1.2293438917322000e-08 -3.7309446084721159e-08 -1.2293438917322000e-08 -2.0131185723056201e+07 -9.1285124536650315e+07 -3.7309446084721159e-08 -9.1285124536650315e+07 4.0047802875278759e+08  -8.4562936075558495e+06 -1.3507787119756191e-08 -3.6069241108617302e-08 -1.3507787119756191e-08 -3.0651838579377159e+07 -5.3519988931349419e+07 -3.6069241108617302e-08 -5.3519988931349419e+07 4.0856672024992448e+08  -9.5591677259756652e+03 -1.2345296103168202e-08 -3.0019473913663630e-08 -1.2345296103168202e-08 -1.3853456051140761e+07 -9.7166795326783825e+06 -3.0019473913663630e-08 -9.7166795326783825e+06 3.7436547744850898e+08  -5.5914737284127502e+06 -1.2985910529913573e-08 -3.3020721784983736e-08 -1.2985910529913573e-08 -2.4844445349092089e+07 -2.7698491202805907e+07 -3.3020721784983736e-08 -2.7698491202805907e+07 3.9399050078372419e+08  -6.5607696838048575e+06 -1.3272939294641702e-08 -3.4787173146586276e-08 -1.3272939294641702e-08 -2.6909540084921729e+07 -4.3933568410463519e+07 -3.4787173146586276e-08 -4.3933568410463519e+07 4.0163332952883375e+08  -1.1468534472790409e+07 -1.4005618689418953e-08 -3.7549828235300307e-08 -1.4005618689418953e-08 -3.6544558281234361e+07 -6.1036414714600451e+07 -3.7549828235300307e-08 -6.1036414714600451e+07 4.1811577569628245e+08  -9.9778660640322100e+06 -1.3875510674837772e-08 -3.4800473188419312e-08 -1.3875510674837772e-08 -3.3301967787022471e+07 -3.4982122257738583e+07 -3.4800473188419312e-08 -3.4982122257738583e+07 4.0455704241189003e+08  -6.9576375518801622e+06 -1.3535735513051619e-08 -3.3019476368285325e-08 -1.3535735513051619e-08 -2.7564120819344081e+07 -1.7753805250891030e+07 -3.3019476368285325e-08 -1.7753805250891030e+07 3.9959595023327267e+08  -1.1773996756038697e+07 -1.4243080698039729e-08 -3.6222641248861173e-08 -1.4243080698039729e-08 -3.6936309700184420e+07 -4.3880406464487046e+07 -3.6222641248861173e-08 -4.3880406464487046e+07 4.1351534733657920e+08  -1.2789618375350364e+07 -1.4115545193854332e-08 -3.8694783705604548e-08 -1.4115545193854332e-08 -3.9209991273259632e+07 -7.0378519757490471e+07 -3.8694783705604548e-08 -7.0378519757490471e+07 4.2449679607717687e+08  -7.2004384230030002e+06 -1.3075611183811555e-08 -3.8631263856220136e-08 -1.3075611183811555e-08 -2.8623658136247229e+07 -8.8015571632775247e+07 -3.8631263856220136e-08 -8.8015571632775247e+07 4.1618233358447570e+08  -1.0792016508726537e+07 -1.4185924052014842e-08 -3.4770480646778861e-08 -1.4185924052014842e-08 -3.5055179634121045e+07 -2.5490481070607200e+07 -3.4770480646778861e-08 -2.5490481070607200e+07 4.1148135138330215e+08  -1.0737674208769774e+09 8.2664943942752909e-08 4.8817535222550159e-08 8.2664943942752909e-08 -1.5162228619334292e+08 4.9814134353644080e+07 4.8817535222550159e-08 4.9814134353644080e+07 -3.6420272417340380e+08  -1.4832548727574000e+07 -1.4878631518291995e-08 -3.6551782252963060e-08 -1.4878631518291995e-08 -4.2855245619023263e+07 -3.4961893762357116e+07 -3.6551782252963060e-08 -3.4961893762357116e+07 4.2146923562697685e+08  -5.7312827034220649e+06 -1.2851290520896075e-08 -3.8912669613240164e-08 -1.2851290520896075e-08 -2.5844608547151428e+07 -9.6573191665773705e+07 -3.8912669613240164e-08 -9.6573191665773705e+07 4.1409539659264547e+08  -9.3891753062575776e+06 -1.3472057854234997e-08 -3.8504719119781026e-08 -1.3472057854234997e-08 -3.2741329932731573e+07 -7.9657923256690174e+07 -3.8504719119781026e-08 -7.9657923256690174e+07 4.1868169343851042e+08  -1.5369682360747958e+07 -1.4826261442987523e-08 -3.9212755828790703e-08 -1.4826261442987523e-08 -4.4308259065707304e+07 -6.2520039193726629e+07 -3.9212755828790703e-08 -6.2520039193726629e+07 4.3405566472520673e+08  -1.2895264865170985e+07 -1.4320411114296749e-08 -3.7375876450937958e-08 -1.4320411114296749e-08 -3.9303492204058647e+07 -5.1999194069750167e+07 -3.7375876450937958e-08 -5.1999194069750167e+07 4.2176957347432625e+08  -4.6086937866969751e+06 -1.3309660408937461e-08 -3.1737675623478647e-08 -1.3309660408937461e-08 -2.2900184457873099e+07 -1.0551592080398722e+07 -3.1737675623478647e-08 -1.0551592080398722e+07 3.9028812924127549e+08  -1.0075521332896063e+07 -1.4494039110104578e-08 -3.4222871924907572e-08 -1.4494039110104578e-08 -3.3832451963371933e+07 -1.3352629932728618e+07 -3.4222871924907572e-08 -1.3352629932728618e+07 4.1405119055974174e+08  -1.5912919406986194e+07 -1.5122073920170899e-08 -3.7989720015032004e-08 -1.5122073920170899e-08 -4.5186561550874025e+07 -4.5106334338340677e+07 -3.7989720015032004e-08 -4.5106334338340677e+07 4.3078812881596774e+08  -4.8217638812511656e+06 -1.3505103141092906e-08 -3.0936825196669471e-08 -1.3505103141092906e-08 -2.3150966274158202e+07 -7.5205040031108027e+05 -3.0936825196669471e-08 -7.5205040031108027e+05 3.8647098471436524e+08  -9.7133344397634398e+06 -1.3540318791441883e-08 -3.9891952696272791e-08 -1.3540318791441883e-08 -3.3610362704936229e+07 -9.2558871198087648e+07 -3.9891952696272791e-08 -9.2558871198087648e+07 4.2606496750213683e+08  -1.5759170577020437e+07 -1.4925949000141628e-08 -3.8571216907165535e-08 -1.4925949000141628e-08 -4.4899277401641585e+07 -5.5246718652802132e+07 -3.8571216907165535e-08 -5.5246718652802132e+07 4.3066568213796604e+08  -1.5744342978266945e+07 -1.4769240765578684e-08 -4.0044689680050681e-08 -1.4769240765578684e-08 -4.5169153199643247e+07 -7.0649951362486541e+07 -4.0044689680050681e-08 -7.0649951362486541e+07 4.3870574671966249e+08  -1.1143517526177319e+07 -1.3823411212156611e-08 -3.970260847531