<?xml version="1.0"?>
<VTKFile type="UnstructuredGrid"  version="0.1"  >
<UnstructuredGrid>
<Piece  NumberOfPoints="10268" NumberOfCells="20038">
<Points>
<DataArray  type="Float64"  NumberOfComponents="3"  format="ascii">4.399996584658672e-23 9.999999999999972e-07 5.118354041799195e-08  4.40123523688283e-23 9.999999999999972e-07 5.107197254408878e-08  4.399501869654966e-23 9.998977161647241e-07 5.112581654884574e-08  4.400667976925973e-23 9.998952087812739e-07 5.101827555997193e-08  4.398770003190948e-23 9.999999999999972e-07 5.129402105481163e-08  4.398294676907132e-23 9.998990622437235e-07 5.123589688403138e-08  4.397586538647746e-23 9.999999999999972e-07 5.140061806432701e-08  4.397097074302434e-23 9.998983116075069e-07 5.134301670069986e-08  4.396405120030225e-23 9.999999999999972e-07 5.150703079323971e-08  4.395820454886629e-23 9.998965810266137e-07 5.145627377431298e-08  4.395220637995988e-23 9.999999999999972e-07 5.16137194502001e-08  4.394622315168714e-23 9.998960631645236e-07 5.156367474396566e-08  4.394040236869503e-23 9.999999999999972e-07 5.172004053166779e-08  4.3934829345483e-23 9.99895126730902e-07 5.166536459309472e-08  4.392802737910274e-23 9.999999999999972e-07 5.18315045287009e-08  4.392284138828567e-23 9.998949804206509e-07 5.177319620197722e-08  4.391595680988776e-23 9.999999999999972e-07 5.194022655073833e-08  4.391018184227892e-23 9.998945955130643e-07 5.188683834774797e-08  4.390406737914057e-23 9.999999999999972e-07 5.204731702250371e-08  4.389854913511445e-23 9.998956349450099e-07 5.199265589099601e-08  4.389206039109145e-23 9.999999999999972e-07 5.215546635631141e-08  4.388593318456127e-23 9.998950869580444e-07 5.210574228445084e-08  4.388005340304234e-23 9.999999999999972e-07 5.22636156901191e-08  4.387383493227716e-23 9.998951321773648e-07 5.221475887272843e-08  4.38683146666146e-23 9.999999999999972e-07 5.236934882812269e-08  4.386231215590716e-23 9.998952402649503e-07 5.231865490304631e-08  4.385639439652475e-23 9.999999999999972e-07 5.247671707599219e-08  4.385060041679764e-23 9.99894981627538e-07 5.242388623341298e-08  4.384295973277542e-23 9.999999999999972e-07 5.259772576930288e-08  4.383841291296222e-23 9.99895420570884e-07 5.253410045222258e-08  4.383118056305356e-23 9.999999999999972e-07 5.270382309804318e-08  4.382566575063462e-23 9.998937309115886e-07 5.264722702394441e-08  4.38195283872793e-23 9.999999999999972e-07 5.280877656699312e-08  4.381445488507661e-23 9.998966177747839e-07 5.275109238703879e-08  4.380754243855785e-23 9.999999999999972e-07 5.291673639538436e-08  4.380261601075234e-23 9.998989794814738e-07 5.28600891937193e-08  4.379553545050873e-23 9.999999999999972e-07 5.302488572919205e-08  4.379011213041468e-23 9.998964489012041e-07 5.297018355510829e-08  4.37838828998391e-23 9.999999999999972e-07 5.312984257489936e-08  4.377815965922585e-23 9.99896748561136e-07 5.307814150462461e-08  4.377223072406485e-23 9.999999999999972e-07 5.32347960438493e-08  4.376610164467137e-23 9.998957691977756e-07 5.318577108097287e-08  4.376023406823188e-23 9.999999999999972e-07 5.334285231332744e-08  4.375483617415713e-23 9.99897577167686e-07 5.32890493885035e-08  4.374857240705421e-23 9.999999999999972e-07 5.344789121919595e-08  4.374317027073759e-23 9.998968777195138e-07 5.339342705691758e-08  4.373658523662465e-23 9.999999999999972e-07 5.355586205175553e-08  4.373135129083259e-23 9.998971318222213e-07 5.350013706661717e-08  4.372491340053663e-23 9.999999999999972e-07 5.366099260506903e-08  4.371915440417266e-23 9.998973283315533e-07 5.361019336438274e-08  4.371282951678745e-23 9.999999999999972e-07 5.376983455376905e-08  4.370756040841007e-23 9.998979087345916e-07 5.371520319741329e-08  4.370007843665426e-23 9.999999999999972e-07 5.388468607324185e-08  4.369505413537689e-23 9.998954320970322e-07 5.382537305299794e-08  4.368814636615144e-23 9.999999999999972e-07 5.399216060978234e-08  4.368253500736285e-23 9.998970671602864e-07 5.39397703967702e-08  4.367641943013667e-23 9.999999999999972e-07 5.409778745911495e-08  4.367044179136349e-23 9.998961212803427e-07 5.404775052296332e-08  4.366419427963032e-23 9.999999999999972e-07 5.420790182564484e-08  4.365854311404894e-23 9.998969670153525e-07 5.415577001541322e-08  4.36517041515112e-23 9.999999999999972e-07 5.432040289833102e-08  4.364599047932945e-23 9.998951629160528e-07 5.426702999820391e-08  4.363962599862986e-23 9.999999999999972e-07 5.442919322796256e-08  4.363383292810976e-23 9.998929640708516e-07 5.437433663928821e-08  4.362725859270394e-23 9.999999999999972e-07 5.454058891740155e-08  4.362155905210076e-23 9.998928903082283e-07 5.448481612350589e-08  4.361545245348412e-23 9.999999999999972e-07 5.46469291657837e-08  4.3609497423983e-23 9.998956906052594e-07 5.459625790833029e-08  4.360302423955106e-23 9.999999999999972e-07 5.475887256505931e-08  4.359749515058286e-23 9.998970602634026e-07 5.470573443449844e-08  4.358959765782629e-23 9.999999999999972e-07 5.487980846196438e-08  4.358457494344072e-23 9.998960758896446e-07 5.482112494088228e-08  4.357733110610988e-23 9.999999999999972e-07 5.49902957374426e-08  4.357256139021757e-23 9.998944902980081e-07 5.4927747816884e-08  4.356542453815241e-23 9.999999999999972e-07 5.509754056747561e-08  4.356038849447614e-23 9.998944066063532e-07 5.50373078226794e-08  4.355368227450266e-23 9.999999999999972e-07 5.520330547587069e-08  4.354786075757863e-23 9.998950888610669e-07 5.515082989983996e-08  4.354176553163483e-23 9.999999999999972e-07 5.53106419533487e-08  4.353622462293866e-23 9.998966060695396e-07 5.525715609156995e-08  4.352905374892759e-23 9.999999999999972e-07 5.542513951307582e-08  4.352435067290067e-23 9.998982439968119e-07 5.536574505277524e-08  4.351724005986242e-23 9.999999999999972e-07 5.553154776441936e-08  4.351116820230134e-23 9.998945390308095e-07 5.548077722613069e-08  4.350558788408817e-23 9.999999999999972e-07 5.563650123336932e-08  4.34996168712561e-23 9.998964219390762e-07 5.558670527477934e-08  4.349362653081553e-23 9.999999999999972e-07 5.574423952565232e-08  4.348816325393976e-23 9.9989779958144e-07 5.569124793049887e-08  4.348161954276641e-23 9.999999999999972e-07 5.585238885946e-08  4.347599120610076e-23 9.998959682632131e-07 5.57990526724962e-08  4.346994239664797e-23 9.999999999999972e-07 5.595756724127555e-08  4.346378333266684e-23 9.998947787464102e-07 5.590782190418918e-08  4.345796053624883e-23 9.999999999999972e-07 5.60654902453331e-08  4.345251252071651e-23 9.99896740591896e-07 5.601130219867443e-08  4.344503104631498e-23 9.999999999999972e-07 5.618194873742943e-08  4.343954744736803e-23 9.99895693653172e-07 5.612703425895249e-08  4.343166708582817e-23 9.999999999999972e-07 5.630232059236667e-08  4.342664856608964e-23 9.998957984965557e-07 5.624332189617392e-08  4.341993960896625e-23 9.999999999999972e-07 5.640795231321734e-08  4.341394326376485e-23 9.998942787020403e-07 5.635624129128964e-08  4.340771307182061e-23 9.999999999999972e-07 5.65180791694836e-08  4.340251463014519e-23 9.998975480485216e-07 5.646245061799267e-08  4.339522487118792e-23 9.999999999999972e-07 5.663056288091537e-08  4.33897198419211e-23 9.998965219850037e-07 5.65766697614313e-08  4.338314479082013e-23 9.999999999999972e-07 5.673937057180133e-08  4.337795023544442e-23 9.998950830720321e-07 5.668124203914509e-08  4.337077931238066e-23 9.999999999999972e-07 5.685074889998589e-08  4.336553360915576e-23 9.998926608458391e-07 5.679065884000568e-08  4.335897263231368e-23 9.999999999999972e-07 5.695709401988611e-08  4.335310295059921e-23 9.998952792399465e-07 5.690524265259958e-08  4.334713048077343e-23 9.999999999999972e-07 5.7063758638414e-08  4.334115939607527e-23 9.998965845033191e-07 5.701412589137921e-08  4.333446920735971e-23 9.999999999999972e-07 5.717780125087013e-08  4.332907204114578e-23 9.998979285534461e-07 5.712434315581886e-08  4.332199303304536e-23 9.999999999999972e-07 5.729017663885633e-08  4.331703629902139e-23 9.998989156993974e-07 5.723373862926321e-08  4.331034085727111e-23 9.999999999999972e-07 5.739513010780628e-08  4.330505122611391e-23 9.998974254761352e-07 5.734020034576143e-08  4.329790454794813e-23 9.999999999999972e-07 5.750714642387195e-08  4.329310740398688e-23 9.998993381141736e-07 5.744969336956108e-08  4.328564068004505e-23 9.999999999999972e-07 5.761760952570885e-08  4.328010870321477e-23 9.99896285485558e-07 5.756372262885252e-08  4.327389864263087e-23 9.999999999999972e-07 5.772337239635496e-08  4.326793724027283e-23 9.998953512576417e-07 5.767241919287607e-08  4.326198167352746e-23 9.999999999999972e-07 5.783071091158194e-08  4.325620524494303e-23 9.998946296810372e-07 5.777737003586267e-08  4.325024981102365e-23 9.999999999999972e-07 5.793638213478305e-08  4.324413563401428e-23 9.998937761121184e-07 5.788522985750644e-08  4.323832266700988e-23 9.999999999999972e-07 5.804381229745503e-08  4.323253426838707e-23 9.998931565283382e-07 5.798910608555757e-08  4.322558421754925e-23 9.999999999999972e-07 5.815855004994341e-08  4.322033264701949e-23 9.998934492143938e-07 5.809930120650188e-08  4.321348770312751e-23 9.999999999999972e-07 5.826750576562786e-08  4.320817667490978e-23 9.998942866203929e-07 5.82096298754283e-08  4.320181094055043e-23 9.999999999999972e-07 5.837268069280989e-08  4.319599217566443e-23 9.998943431665255e-07 5.831943463408287e-08  4.319015876477618e-23 9.999999999999972e-07 5.847763416175984e-08  4.318457316798612e-23 9.998981261551997e-07 5.842607090020703e-08  4.317736538174317e-23 9.999999999999972e-07 5.859286671188042e-08  4.317253805882517e-23 9.998963968070843e-07 5.853274417835687e-08  4.316571320596892e-23 9.999999999999972e-07 5.869782018083037e-08  4.315913243341051e-23 9.998917566278499e-07 5.864885113836682e-08  4.315405165342038e-23 9.999999999999972e-07 5.880285810825462e-08  4.314741289611107e-23 9.998931742293913e-07 5.875582894753753e-08  4.31419436044324e-23 9.999999999999972e-07 5.891191771807558e-08  4.313567355880596e-23 9.998915115449229e-07 5.885990481329497e-08  4.312857910240788e-23 9.999999999999972e-
[...]
<PointData  Tensors="f_71"> 
<DataArray  type="Float64"  Name="f_71"  NumberOfComponents="9" format="ascii">7.1880934044176163e+06 -1.0597872776443685e-08 -2.7186776831834948e-08 -1.0597872776443685e-08 -2.2713103533809455e+04 3.5320211548174128e+04 -2.7186776831834948e-08 3.5320211548174128e+04 3.5830517460644883e+08  7.1844930211968413e+06 -1.0573844717292816e-08 -2.7165774803587298e-08 -1.0573844717292816e-08 -2.3862512322671730e+04 3.6762990113757158e+04 -2.7165774803587298e-08 3.6762990113757158e+04 3.5815711421876723e+08  7.2053931330592502e+06 -1.0601015836754040e-08 -2.7198614440426825e-08 -1.0601015836754040e-08 -1.0268818325006259e+03 1.2331797615530161e+05 -2.7198614440426825e-08 1.2331797615530161e+05 3.5857925885132194e+08  7.2046346193438834e+06 -1.0579160848349067e-08 -2.7180066610378560e-08 -1.0579160848349067e-08 1.7447380798763634e+03 1.3489535482180605e+05 -2.7180066610378560e-08 1.3489535482180605e+05 3.5846652067940003e+08  7.1897597893324876e+06 -1.0620751776980695e-08 -2.7205717620138961e-08 -1.0620751776980695e-08 -2.4062385175939093e+04 3.0911519945092612e+04 -2.7205717620138961e-08 3.0911519945092612e+04 3.5842460480123985e+08  7.2042765964591606e+06 -1.0624258313482416e-08 -2.7219206755989005e-08 -1.0624258313482416e-08 -8.0288679245366011e+03 1.1225043760887520e+05 -2.7219206755989005e-08 1.1225043760887520e+05 3.5871315514849293e+08  7.1863829698295351e+06 -1.0644082814462508e-08 -2.7226039466327386e-08 -1.0644082814462508e-08 -3.5076014175020020e+04 2.2278281912015154e+04 -2.7226039466327386e-08 2.2278281912015154e+04 3.5855457133104688e+08  7.2068900935517987e+06 -1.0646817223019832e-08 -2.7238708038910982e-08 -1.0646817223019832e-08 -7.9173682253436273e+03 1.0365038108036145e+05 -2.7238708038910982e-08 1.0365038108036145e+05 3.5884018988082892e+08  7.1910884928840483e+06 -1.0665370561794838e-08 -2.7242579862678393e-08 -1.0665370561794838e-08 -2.9997473967771846e+04 1.8980083907908116e+04 -2.7242579862678393e-08 1.8980083907908116e+04 3.5865131234776551e+08  7.2100933444051240e+06 -1.0668497650723795e-08 -2.7257045302049065e-08 -1.0668497650723795e-08 -6.2868835750937251e+03 9.4685304386163160e+04 -2.7257045302049065e-08 9.4685304386163160e+04 3.5895547159528267e+08  7.1946653160331091e+06 -1.0685188581643206e-08 -2.7257294247863216e-08 -1.0685188581643206e-08 -2.6363273415469474e+04 1.6958106769949263e+04 -2.7257294247863216e-08 1.6958106769949263e+04 3.5873096786914313e+08  7.2153199781334884e+06 -1.0688635912235864e-08 -2.7273353388185646e-08 -1.0688635912235864e-08 -1.9639198350877447e+02 8.4838689297383666e+04 -2.7273353388185646e-08 8.4838689297383666e+04 3.5905076291544837e+08  7.1959270159286223e+06 -1.0706068381201601e-08 -2.7272503693810265e-08 -1.0706068381201601e-08 -2.7119161299081767e+04 2.0061543586567175e+04 -2.7272503693810265e-08 2.0061543586567175e+04 3.5881420450730711e+08  7.2165544189019836e+06 -1.0708411880715768e-08 -2.7288580248306718e-08 -1.0708411880715768e-08 -7.8170918633296787e+02 7.4293187018990662e+04 -2.7288580248306718e-08 7.4293187018990662e+04 3.5912802786559159e+08  7.1949682675921815e+06 -1.0728413851890437e-08 -2.7288515883484763e-08 -1.0728413851890437e-08 -3.1800323719018830e+04 1.9485764006571117e+04 -2.7288515883484763e-08 1.9485764006571117e+04 3.5889315669265842e+08  7.2182581609120229e+06 -1.0729290795964583e-08 -2.7304573328819479e-08 -1.0729290795964583e-08 -6.5560732405012720e+02 6.3938587989858366e+04 -2.7304573328819479e-08 6.3938587989858366e+04 3.5920939668269873e+08  7.1972181303780386e+06 -1.0748138476597776e-08 -2.7302013589224023e-08 -1.0748138476597776e-08 -2.9757952227796955e+04 1.4538903582643501e+04 -2.7302013589224023e-08 1.4538903582643501e+04 3.5894985168069595e+08  7.2186803493324509e+06 -1.0750100141254456e-08 -2.7319637792810883e-08 -1.0750100141254456e-08 -2.3474617428795377e+03 5.4208839133484631e+04 -2.7319637792810883e-08 5.4208839133484631e+04 3.5927618293551546e+08  7.1951494729070906e+06 -1.0768648693034945e-08 -2.7316020708769146e-08 -1.0768648693034945e-08 -3.5544519755316724e+04 7.7135791719533800e+03 -2.7316020708769146e-08 7.7135791719533800e+03 3.5900348267587584e+08  7.2185439553348375e+06 -1.0769935510517936e-08 -2.7333722569872632e-08 -1.0769935510517936e-08 -4.8084158773311647e+03 4.5779103414902056e+04 -2.7333722569872632e-08 4.5779103414902056e+04 3.5933598325183088e+08  7.1987003468491947e+06 -1.0788997677020745e-08 -2.7328671958431736e-08 -1.0788997677020745e-08 -3.0600908465931687e+04 6.3402960446015804e+03 -2.7328671958431736e-08 6.3402960446015804e+03 3.5904641742370671e+08  7.2191908784515290e+06 -1.0790343786726118e-08 -2.7347297001284600e-08 -1.0790343786726118e-08 -5.4078437636246808e+03 3.8109461917394219e+04 -2.7347297001284600e-08 3.8109461917394219e+04 3.5938439421870786e+08  7.2007598430498596e+06 -1.0806846126611147e-08 -2.7339275698907815e-08 -1.0806846126611147e-08 -2.7594284674057228e+04 -2.0286763780085905e+03 -2.7339275698907815e-08 -2.0286763780085905e+03 3.5906754913192344e+08  7.2218105412432356e+06 -1.0808798509954486e-08 -2.7358365472194709e-08 -1.0808798509954486e-08 -1.4927774151634981e+03 2.9964399111480747e+04 -2.7358365472194709e-08 2.9964399111480747e+04 3.5940882041263056e+08  7.1996782352187354e+06 -1.0826281835449212e-08 -2.7350394075438756e-08 -1.0826281835449212e-08 -3.0478244068183278e+04 -1.7037474364935724e+03 -2.7350394075438756e-08 -1.7037474364935724e+03 3.5909175965381896e+08  7.2225342862829855e+06 -1.0827326812991895e-08 -2.7370018641414702e-08 -1.0827326812991895e-08 -1.3626389072136560e+03 2.2312492355445451e+04 -2.7370018641414702e-08 2.2312492355445451e+04 3.5944131384730893e+08  7.2041027288595634e+06 -1.0844858855671937e-08 -2.7359430445327987e-08 -1.0844858855671937e-08 -2.2527161281317050e+04 2.0192260727039115e+03 -2.7359430445327987e-08 2.0192260727039115e+03 3.5909679212949026e+08  7.2234082398766773e+06 -1.0844895778251814e-08 -2.7379893824456932e-08 -1.0844895778251814e-08 -1.0756498664819446e+02 1.2774608138451056e+04 -2.7379893824456932e-08 1.2774608138451056e+04 3.5945084384827673e+08  7.2040094543581931e+06 -1.0864985420571087e-08 -2.7369853431730138e-08 -1.0864985420571087e-08 -2.2901242767278978e+04 -1.4209845092207163e+02 -2.7369853431730138e-08 -1.4209845092207163e+02 3.5910227239054275e+08  7.2252652957796007e+06 -1.0863205490637734e-08 -2.7389700647425735e-08 -1.0863205490637734e-08 3.3358377823767632e+03 -3.8744916505750683e+02 -2.7389700647425735e-08 -3.8744916505750683e+02 3.5945008362789577e+08  7.1990197149270717e+06 -1.0883806623675004e-08 -2.7378208835568507e-08 -1.0883806623675004e-08 -3.1695040896949646e+04 7.1831770281442150e+03 -2.7378208835568507e-08 7.1831770281442150e+03 3.5909191426026690e+08  7.2236822883520909e+06 -1.0882207312023726e-08 -2.7400011179522877e-08 -1.0882207312023726e-08 4.8044937784422831e+02 -1.4464442648391121e+04 -2.7400011179522877e-08 -1.4464442648391121e+04 3.5944857067048639e+08  7.1969479268494500e+06 -1.0900033223633727e-08 -2.7384971379908690e-08 -1.0900033223633727e-08 -3.4393387580466442e+04 -6.8551720473370551e+02 -2.7384971379908690e-08 -6.8551720473370551e+02 3.5906182965319222e+08  7.2228382401456218e+06 -1.0898180077065468e-08 -2.7406857191527112e-08 -1.0898180077065468e-08 -8.1697274119333557e+01 -2.3157889276881913e+04 -2.7406857191527112e-08 -2.3157889276881913e+04 3.5942177986464769e+08  7.1993354401187301e+06 -1.0917587120403367e-08 -2.7392302642690469e-08 -1.0917587120403367e-08 -2.8927746737278943e+04 -9.1595810970276616e+03 -2.7392302642690469e-08 -9.1595810970276616e+03 3.5903274891741693e+08  7.2197191001269473e+06 -1.0915454160736383e-08 -2.7414827573186298e-08 -1.0915454160736383e-08 -5.0240876121554966e+03 -3.2665574047858434e+04 -2.7414827573186298e-08 -3.2665574047858434e+04 3.5940029582662946e+08  7.1985554306990523e+06 -1.0934292391760667e-08 -2.7398055636711820e-08 -1.0934292391760667e-08 -2.8671465586243557e+04 -1.3845953342398305e+04 -2.7398055636711820e-08 -1.3845953342398305e+04 3.5898700009509867e+08  7.2175583319691392e+06 -1.0932554554347610e-08 -2.7421501108924432e-08 -1.0932554554347610e-08 -7.4622623922254807e+03 -4.3297307085252512e+04 -2.7421501108924432e-08 -4.3297307085252512e+04 3.5935874380843210e+08  7.1955954659517249e+06 -1.0951403228576309e-08 -2.7403296080376017e-08 -1.0951403228576309e-08 -3.2129918262079438e+04 -1.3985643542093836e+04 -2.7403296080376017e-08 -1.3985643542093836e+04 3.5893328508479327e+08  7.2202082595009832e+06 -1.0948911343747496e-08 -2.7426654858305467e-08 -1.0948911343747496e-08 -6.7221557388163296e+02 -4.9424917765011756e+04 -2.7426654858305467e-08 -4.9424917765011756e+04 3.5930688597501802e+08  7.1982866966964975e+06 -1.0966511123596832e-08 -2.7406866443178284e-08 -1.0966511123596832e-08 -2.4824620666374816e+04 -1.6792443756320859e+04 -2.7406866443178284e-08 -1.6792443756320859e+04 3.5886954111783147e+08  7.2201288898136821e+06 -1.0964727889063738e-08 -2.7431450273609218e-08 -1.0964727889063738e-08 1.3091725607692663e+03 -5.7696740208197880e+04 -2.7431450273609218e-08 -5.7696740208197880e+04 3.5924932482598543e+08  7.1962580993770687e+06 -1.0982892486498107e-08 -2.7410691072112035e-08 -1.0982892486498107e-08 -2.5925507180791457e+04 -1.7924986075238845e+04 -2.7410691072112035e-08 -1.7924986075238845e+04 3.5879838232460147e+08  7.2166552327757375e+06 -1.0980327123448424e-08 -2.7435677797310354e-08 -1.0980327123448424e-08 -2.6237750268303880e+03 -6.5184110594725542e+04 -2.7435677797310354e-08 -6.5184110594725542e+04 3.5918288638467240e+08  7.1916863833294148e+06 -1.0998092789092623e-08 -2.7413434292167020e-08 -1.0998092789092623e-08 -3.1253637576876714e+04 -2.1244710657098483e+04 -2.7413434292167020e-08 -2.1244710657098483e+04 3.5871505306029409e+08  7.2159543941111788e+06 -1.0995041314015965e-08 -2.7438506941811053e-08 -1.0995041314015965e-08 -8.7413561834953555e+02 -7.4675831657819217e+04 -2.7438506941811053e-08 -7.4675831657819217e+04 3.5910067054334170e+08  7.1892902579378281e+06 -1.1013523903744824e-08 -2.7415452161880728e-08 -1.1013523903744824e-08 -3.2115047068869910e+04 -2.5095928053494074e+04 -2.7415452161880728e-08 -2.5095928053494074e+04 3.5861912583194411e+08  7.2144844392301906e+06 -1.1009417621652856e-08 -2.7441091856586096e-08 -1.1009417621652856e-08 -3.7099960995289001e+02 -8.6688989917942599e+04 -2.7441091856586096e-08 -8.6688989917942599e+04 3.5901390967296690e+08  7.1896245697286567e+06 -1.1027697044404310e-08 -2.7414700063378831e-08 -1.1027697044404310e-08 -2.6862462740280702e+04 -2.6075642888982904e+04 -2.7414700063378831e-08 -2.6075642888982904e+04 3.5849363942047650e+08  7.2114475597340669e+06 -1.1023971070479089e-08 -2.7442765963348482e-08 -1.1023971070479089e-08 -2.0333030226793371e+03 -1.0074426773171168e+05 -2.7442765963348482e-08 -1.0074426773171168e+05 3.5890776779289383e+08  7.1896755369983008e+06 -1.1043591853145870e-08 -2.7415903714301932e-08 -1.1043591853145870e-08 -2.2866953459821791e+04 -2.4956425136183294e+04 -2.7415903714301932e-08 -2.4956425136183294e+04 3.5838806677197546e+08  7.2086918570944732e+06 -1.1039273067416700e-08 -2.7444393395387314e-08 -1.1039273067416700e-08 -3.0821102579592966e+03 -1.1125575267848490e+05 -2.7444393395387314e-08 -1.1125575267848490e+05 3.5879901797777957e+08  7.1833682250745939e+06 -1.1059477955573349e-08 -2.7416242054500168e-08 -1.1059477955573349e-08 -2.9689126509408288e+04 -2.8828300333496245e+04 -2.7416242054500168e-08 -2.8828300333496245e+04 3.5825879677635956e+08  7.2057093987834342e+06 -1.1054704919785352e-08 -2.7445293216032761e-08 -1.1054704919785352e-08 -4.0329564682563409e+03 -1.2271292406450282e+05 -2.7445293216032761e-08 -1.2271292406450282e+05 3.5867633386136007e+08  7.1806336850966290e+06 -1.1074449781488272e-08 -2.7414936602323074e-08 -1.1074449781488272e-08 -2.9269526162753991e+04 -3.3987470744694132e+04 -2.7414936602323074e-08 -3.3987470744694132e+04 3.5811136847523552e+08  7.2029565723146144e+06 -1.1069493060236534e-08 -2.7445152238727687e-08 -1.1069493060236534e-08 -4.2474114866199061e+03 -1.3145645252074124e+05 -2.7445152238727687e-08 -1.3145645252074124e+05 3.5854515160738283e+08  7.1780222382230107e+06 -1.1088143231112280e-08 -2.7412904038519906e-08 -1.1088143231112280e-08 -2.8554323322551565e+04 -3.9517174107447048e+04 -2.7412904038519906e-08 -3.9517174107447048e+04 3.5796206718525368e+08  7.1996106570141306e+06 -1.1083736089772231e-08 -2.7443039236058360e-08 -1.1083736089772231e-08 -4.7247414734891672e+03 -1.3527497062782865e+05 -2.7443039236058360e-08 -1.3527497062782865e+05 3.5839156910207349e+08  7.1764393313614018e+06 -1.1103145934870395e-08 -2.7410852006508875e-08 -1.1103145934870395e-08 -2.5625529628342731e+04 -4.3871714596940190e+04 -2.7410852006508875e-08 -4.3871714596940190e+04 3.5780405319505805e+08  7.1964070983474255e+06 -1.1098013164028860e-08 -2.7441463741506012e-08 -1.1098013164028860e-08 -5.1261996502245083e+03 -1.4222940889105728e+05 -2.7441463741506012e-08 -1.4222940889105728e+05 3.5824301757393646e+08  7.1726056439506011e+06 -1.1117767148911588e-08 -2.7407944882769719e-08 -1.1117767148911588e-08 -2.6412167593235070e+04 -4.7496469137074280e+04 -2.7407944882769719e-08 -4.7496469137074280e+04 3.5763456752628851e+08  7.1952180420878222e+06 -1.1112147645192258e-08 -2.7438807720832843e-08 -1.1112147645192258e-08 -1.1834897027735774e+03 -1.5138896794091392e+05 -2.7438807720832843e-08 -1.5138896794091392e+05 3.5807716806514233e+08  7.1676184850890934e+06 -1.1131832528422137e-08 -2.7404048606581989e-08 -1.1131832528422137e-08 -2.9141481331709394e+04 -4.4332014159909006e+04 -2.7404048606581989e-08 -4.4332014159909006e+04 3.5746024746707433e+08  7.1928711423589243e+06 -1.1125471264511862e-08 -2.7436213689184814e-08 -1.1125471264511862e-08 5.8288960296411472e+02 -1.6543752474678325e+05 -2.7436213689184814e-08 -1.6543752474678325e+05 3.5791258874551874e+08  7.1631823541925922e+06 -1.1145248303780486e-08 -2.7398137026177678e-08 -1.1145248303780486e-08 -2.9769895955305881e+04 -4.3470624268535466e+04 -2.7398137026177678e-08 -4.3470624268535466e+04 3.5725650213886213e+08  7.1866977956398781e+06 -1.1138655019459947e-08 -2.7431934224503905e-08 -1.1138655019459947e-08 -3.7463103360621712e+03 -1.7661428942912314e+05 -2.7431934224503905e-08 -1.7661428942912314e+05 3.5772253121672457e+08  7.1599860692145620e+06 -1.1157816642365914e-08 -2.7391652838774452e-08 -1.1157816642365914e-08 -2.7873208984907425e+04 -4.7151019255735860e+04 -2.7391652838774452e-08 -4.7151019255735860e+04 3.5704613028780931e+08  7.1826192558059823e+06 -1.1151604740351383e-08 -2.7426338454588592e-08 -1.1151604740351383e-08 -3.6924920202285452e+03 -1.8457406362948209e+05 -2.7426338454588592e-08 -1.8457406362948209e+05 3.5751812059096915e+08  7.1578238363441350e+06 -1.1172144046691533e-08 -2.7385689223169446e-08 -1.1172144046691533e-08 -2.3964249193099524e+04 -4.9111169120805258e+04 -2.7385689223169446e-08 -4.9111169120805258e+04 3.5683276720803076e+08  7.1767710460847560e+06 -1.1165222889285679e-08 -2.7420751601164404e-08 -1.1165222889285679e-08 -6.7619860049707404e+03 -1.8996331899660852e+05 -2.7420751601164404e-08 -1.8996331899660852e+05 3.5731015777131212e+08  7.1553833622119809e+06 -1.1184773451489114e-08 -2.7378005850787759e-08 -1.1184773451489114e-08 -1.9613034503811181e+04 -6.1472838890389008e+04 -2.7378005850787759e-08 -6.1472838890389008e+04 3.5659359206157744e+08  7.1763687430042233e+06 -1.1177458639075228e-08 -2.7413333411659427e-08 -1.1177458639075228e-08 1.0861546334887871e+03 -2.0413208644855060e+05 -2.7413333411659427e-08 -2.0413208644855060e+05 3.5707778676522851e+08  7.1402398592297351e+06 -1.1198049695988895e-08 -2.7369599429120524e-08 -1.1198049695988895e-08 -3.8467583905517502e+04 -5.4498388975468275e+04 -2.7369599429120524e-08 -5.4498388975468275e+04 3.5635018669798684e+08  7.1717064972385401e+06 -1.1188702489570370e-08 -2.7405996519523763e-08 -1.1188702489570370e-08 8.7074285348697026e+02 -2.1836046640465158e+05 -2.7405996519523763e-08 -2.1836046640465158e+05 3.5685161475014591e+08  7.1335904474416841e+06 -1.1211271048521042e-08 -2.7361021010406041e-08 -1.1211271048521042e-08 -4.1755039047613769e+04 -4.9360864698168036e+04 -2.7361021010406041e-08 -4.9360864698168036e+04 3.5610825233191884e+08  7.1671781704525920e+06 -1.1201158389469312e-08 -2.7398629950850391e-08 -1.1201158389469312e-08 1.0523177232711205e+03 -2.2719026387062977e+05 -2.7398629950850391e-08 -2.2719026387062977e+05 3.5662136524736625e+08  7.1338329076596489e+06 -1.1222094058488195e-08 -2.7350686462988682e-08 -1.1222094058488195e-08 -3.1688255312604841e+04 -5.6864341494077169e+04 -2.7350686462988682e-08 -5.6864341494077169e+04 3.5584793460300797e+08  7.1597916032316545e+06 -1.1212970238770254e-08 -2.7389089287234600e-08 -1.1212970238770254e-08 -2.8159728740084320e+03 -2.3676664953002700e+05 -2.7389089287234600e-08 -2.3676664953002700e+05 3.5635846489871919e+08  7.1292240389379356e+06 -1.1232370347440404e-08 -2.7338635179420557e-08 -1.1232370347440404e-08 -2.9639255932597269e+04 -6.2418672917057243e+04 -2.7338635179420557e-08 -6.2418672917057243e+04 3.5556314919951367e+08  7.1537386238150150e+06 -1.1223868502306477e-08 -2.7378487170069153e-08 -1.1223868502306477e-08 -3.9937784125137264e+03 -2.4408947611737077e+05 -2.7378487170069153e-08 -2.4408947611737077e+05 3.5608912788978142e+08  7.1237199757671114e+06 -1.1246056169745465e-08 -2.7330104595522552e-08 -1.1246056169745465e-08 -3.0268421681635864e+04 -6.8929399183830406e+04 -2.7330104595522552e-08 -6.8929399183830406e+04 3.5530628223809373e+08  7.1493621800469253e+06 -1.1235741126461993e-08 -2.7367688780710324e-08 -1.1235741126461993e-08 -1.7693056739355500e+03 -2.5039715259787595e+05 -2.7367688780710324e-08 -2.5039715259787595e+05 3.5581116042393094e+08  7.1181067720497316e+06 -1.1256453700714983e-08 -2.7316776689653872e-08 -1.1256453700714983e-08 -2.9304784163388198e+04 -7.3041866695075354e+04 -2.7316776689653872e-08 -7.3041866695075354e+04 3.5500088685442579e+08  7.1437387231117338e+06 -1.1247151221553963e-08 -2.7356425263871158e-08 -1.1247151221553963e-08 -1.5022200595160077e+03 -2.6073114121620805e+05 -2.7356425263871158e-08 -2.6073114121620805e+05 3.5552410184129107e+08  7.1130661037631044e+06 -1.1266496684810963e-08 -2.7303148464813863e-08 -1.1266496684810963e-08 -2.7426980534116836e+04 -7.2257908253720816e+04 -2.7303148464813863e-08 -7.2257908253720816e+04 3.5469924658340400e+08  7.1389389959767871e+06 -1.1256886850057008e-08 -2.7343663308690833e-08 -1.1256886850057008e-08 6.1597689846363255e+02 -2.7001285484503437e+05 -2.7343663308690833e-08 -2.7001285484503437e+05 3.5522794670902115e+08  7.1059966071510045e+06 -1.1278013299449863e-08 -2.7290870544660821e-08 -1.1278013299449863e-08 -2.9467093765679387e+04 -7.4737476230551707e+04 -2.7290870544660821e-08 -7.4737476230551707e+04 3.5440265808063930e+08  7.1313868642678419e+06 -1.1268050214822790e-08 -2.7331725221236590e-08 -1.1268050214822790e-08 -2.3403166388665682e+03 -2.7901729062163195e+05 -2.7331725221236590e-08 -2.7901729062163195e+05 3.5493213117212069e+08  7.0986044220027300e+06 -1.1289665307336862e-08 -2.7277740433511907e-08 -1.1289665307336862e-08 -3.1633710705058857e+04 -7.5055629819535141e+04 -2.7277740433511907e-08 -7.5055629819535141e+04 3.5409343498435324e+08  7.1250110995022105e+06 -1.1278570630906712e-08 -2.7319118775092761e-08 -1.1278570630906712e-08 -2.7778901768922246e+03 -2.9236161070248653e+05 -2.7319118775092761e-08 -2.9236161070248653e+05 3.5462670297126740e+08  7.0925938880262421e+06 -1.1298480593506548e-08 -2.7261557966186035e-08 -1.1298480593506548e-08 -3.0079728589443588e+04 -8.1079679364486918e+04 -2.7261557966186035e-08 -8.1079679364486918e+04 3.5375229453122723e+08  7.1191278720730776e+06 -1.1288296691045712e-08 -2.7305111892597653e-08 -1.1288296691045712e-08 -1.7700461256099013e+03 -3.0453119847886509e+05 -2.7305111892597653e-08 -3.0453119847886509e+05 3.5430667466897607e+08  7.0860550959798479e+06 -1.1309698469962820e-08 -2.7246456838859494e-08 -1.1309698469962820e-08 -2.9741577314169335e+04 -7.9233026014923060e+04 -2.7246456838859494e-08 -7.92330