<?xml version="1.0"?>
<VTKFile type="UnstructuredGrid"  version="0.1"  >
<UnstructuredGrid>
<Piece  NumberOfPoints="10337" NumberOfCells="20334">
<Points>
<DataArray  type="Float64"  NumberOfComponents="3"  format="ascii">4.266870628863954e-23 9.368255394837965e-07 1.076858095315143e-38  4.255737654160246e-23 9.358227702692536e-07 1.074386078345417e-38  4.253982230365388e-23 9.361704645100298e-07 5.058087597440809e-10  4.244604679456538e-23 9.348200010547108e-07 1.071914061375692e-38  4.243370819008227e-23 9.353966135597705e-07 6.877487741644349e-10  4.23347170475283e-23 9.338172318401678e-07 1.069442044405967e-38  4.231344058267209e-23 9.344210140361049e-07 7.954235543334338e-10  4.222233913778863e-23 9.328050216153114e-07 1.066946753548923e-38  4.218740878250211e-23 9.33389599667248e-07 8.992027220412039e-10  4.209845029595685e-23 9.316891301314935e-07 1.064195868655007e-38  4.194529207711292e-23 9.30309603536865e-07 1.060795073035585e-38  4.189400296004868e-23 9.310007887590823e-07 1.153156519214667e-09  4.178309367274735e-23 9.288486501899432e-07 1.057193544973902e-38  4.160093429801639e-23 9.272079044056223e-07 1.05314879433435e-38  4.151305078569901e-23 9.279489705851017e-07 1.532650486128394e-09  4.137848505246354e-23 9.252042597268611e-07 1.048209428849884e-38  4.111141271703894e-23 9.227986859862627e-07 1.042279231729308e-38  4.101798038982794e-23 9.239784609940182e-07 2.021338595779183e-09  4.076884858623862e-23 9.19713142602617e-07 1.034672780020804e-38  4.039561915939896e-23 9.163513907873394e-07 1.026385421957903e-38  4.02777116776899e-23 9.181822829708746e-07 2.892908364913336e-09  3.99895915201965e-23 9.126942189381109e-07 1.017369797284368e-38  3.956088282775113e-23 9.088327543230159e-07 1.007850552060172e-38  3.933231347028477e-23 9.105506866269332e-07 3.776702050144866e-09  3.899318338853762e-23 9.037193723572151e-07 9.952450922905391e-39  3.838071201791071e-23 8.982027206841542e-07 9.816454959386647e-39  3.813234074809629e-23 9.008024824763769e-07 4.836891308594207e-09  3.771196817277948e-23 8.921792116206756e-07 9.667963996498437e-39  3.697265866024709e-23 8.85520103530371e-07 9.503804307870865e-39  3.661543199706156e-23 8.886034861439794e-07 6.300994348026829e-09  3.610193180878267e-23 8.776772932827776e-07 9.310464108139831e-39  3.500818654818602e-23 8.678257117866549e-07 9.067603873862022e-39  3.455700841509291e-23 8.723742535651642e-07 8.6123931226609e-09  3.382103199522436e-23 8.571327741819563e-07 8.804002610164699e-39  3.246195912325012e-23 8.448913340223713e-07 8.502227811242851e-39  3.192918080100813e-23 8.509608422707948e-07 1.08683487554637e-08  3.076422620188422e-23 8.295995153182951e-07 8.125255375449941e-39  2.88015052883377e-23 8.119208969685343e-07 7.689443785623406e-39  2.828058724736602e-23 8.21502013455181e-07 1.427312907706792e-08  2.654386321087383e-23 7.915858649309298e-07 7.188146542470815e-39  2.414095610052634e-23 7.699424017973961e-07 6.654593982482158e-39  2.340060257142016e-23 7.822837844488227e-07 1.900989440703666e-08  2.130154354782941e-23 7.44367247168842e-07 6.024117743999393e-39  1.82216075409841e-23 7.16625649863335e-07 5.340234570165048e-39  1.734770845545298e-23 7.336694624532543e-07 2.491519578183399e-08  1.484094386692859e-23 6.861753385378524e-07 4.589576440274988e-39  1.071420705810335e-23 6.490049978288894e-07 3.673256795929802e-39  9.633301251144317e-24 6.713813960392141e-07 3.211233218921136e-08  5.45802611172134e-24 6.016615287258535e-07 2.506150174275932e-39  -1.084612401337949e-25 5.515230679986988e-07 1.270141689413075e-39  -8.707277512381565e-25 5.819835316646647e-07 3.732635001669912e-08  -5.674948591988918e-24 5.013846072715442e-07 3.413320455022038e-41  -1.124143594384405e-23 4.512461465443895e-07 -1.201875280312637e-39  -1.428060417686656e-23 4.76254613060352e-07 5.238286035947538e-08  -1.68079232956992e-23 4.011076858172346e-07 -2.437883765175496e-39  -2.237441064755432e-23 3.5096922509008e-07 -3.673892250038351e-39  -2.553236474521664e-23 3.749971847780727e-07 5.247228148296293e-08  -2.794089799940946e-23 3.008307643629253e-07 -4.909900734901208e-39  -3.350738535126458e-23 2.506923036357707e-07 -6.145909219764063e-39  -3.664656390329734e-23 2.748916120406475e-07 5.247451511924524e-08  -3.907387270311956e-23 2.005538429086173e-07 -7.381917704626886e-39  -4.464036005497468e-23 1.504153821814627e-07 -8.61792618948974e-39  -4.778686398367663e-23 1.745505344629843e-07 5.247634012316538e-08  -5.020684740682983e-23 1.002769214543079e-07 -9.8539346743526e-39  -5.577333475868495e-23 5.013846072715324e-08 -1.108994315921545e-38  -5.9402427548126e-23 6.994109522973705e-08 5.249059637102312e-08  -6.13398221105399e-23 0 0  -6.716849298982199e-23 3.262652233999262e-55 5.249999999999989e-08  -7.299716386910404e-23 0 1.05e-07  -6.746492278537107e-23 4.982999776644719e-08 1.049999999999998e-07  2.301319865828242e-23 8.647844658040879e-07 1.049999999999998e-07  2.414672788881825e-23 8.749943894445973e-07 1.049999999999998e-07  2.440660507046355e-23 8.694357510350442e-07 9.710059603360698e-08  2.174830728891433e-23 8.533913372045873e-07 1.049999999999998e-07  2.325202461219459e-23 8.582062176531378e-07 9.627059889495925e-08  2.028877407411511e-23 8.40245030719978e-07 1.049999999999998e-07  2.202024905577085e-23 8.45849830949573e-07 9.500906006522254e-08  1.864363768732887e-23 8.254269594829697e-07 1.049999999999998e-07  2.06389696175899e-23 8.335116966134043e-07 9.511238485522643e-08  1.440545333322354e-23 7.872527885272172e-07 1.049999999999998e-07  1.655375951321309e-23 8.066030103505746e-07 1.049999999999998e-07  1.731588513788412e-23 7.977708312100094e-07 8.93032035008787e-08  1.211117411660559e-23 7.665877584771283e-07 1.049999999999998e-07  1.516220012244611e-23 7.770031403815303e-07 8.793418273839978e-08  9.585646368321459e-24 7.438398268249558e-07 1.049999999999998e-07  1.303076609637387e-23 7.558813475868939e-07 8.601064091493081e-08  6.778241607689252e-24 7.185529727572331e-07 1.049999999999998e-07  1.067010858923015e-23 7.320008269930742e-07 8.339303286015473e-08  3.677316885097165e-24 6.906223259068937e-07 1.049999999999998e-07  8.17689880735259e-24 7.04985791486407e-07 7.883483464272807e-08  2.785391326931076e-25 6.600088574684096e-07 1.049999999999998e-07  5.41158962437934e-24 6.718762023909559e-07 7.063293635928206e-08  -3.508204956959836e-24 6.259008989261927e-07 1.049999999999998e-07  1.049124314996824e-24 6.394102838642812e-07 7.746061211611092e-08  -1.244987481592944e-23 5.453614968363417e-07 1.049999999999998e-07  -7.718737097427694e-24 5.879757969685076e-07 1.049999999999998e-07  -6.319058621231398e-24 5.689669783475274e-07 7.338399845134726e-08  -1.767475303177289e-23 4.982999776644842e-07 1.049999999999998e-07  -8.258223596699605e-24 5.299876371306113e-07 5.187110255628821e-08  -2.320699411550596e-23 4.484699798980362e-07 1.049999999999998e-07  -3.427147628297224e-23 3.488099843651389e-07 1.049999999999998e-07  -2.873923519923911e-23 3.986399821315875e-07 1.049999999999998e-07  -4.533595845043855e-23 2.491499888322414e-07 1.049999999999998e-07  -3.98037173667054e-23 2.989799865986901e-07 1.049999999999998e-07  -5.640044061790477e-23 1.494899932993446e-07 1.049999999999998e-07  -5.086819953417161e-23 1.993199910657934e-07 1.049999999999998e-07  -6.193268170163791e-23 9.965999553289597e-08 1.049999999999998e-07  4.278003603567662e-23 9.378283086983394e-07 1.079330112284868e-38  4.267692622956003e-23 9.373032843638962e-07 4.037062343666848e-10  4.204740290755034e-23 9.322714431237017e-07 1.042106991019771e-09  4.172270841821059e-23 9.296305035425131e-07 1.325755372230805e-09  4.128479140646464e-23 9.260986721906598e-07 1.73832980221398e-09  4.067616162320122e-23 9.212838580905511e-07 2.405565432328679e-09  3.980911594998762e-23 9.145503363826315e-07 3.481696866005063e-09  3.876977458426227e-23 9.059704379800886e-07 4.263353238244997e-09  3.741888159491969e-23 8.950220119478546e-07 5.482689532852314e-09  3.570801059645097e-23 8.813879813207502e-07 7.258814888113389e-09  3.333661453398422e-23 8.623797162862985e-07 9.610186700207916e-09  3.017802084256949e-23 8.369073725563352e-07 1.258792571358492e-08  2.598615304467193e-23 8.028549342754766e-07 1.629247593792199e-08  2.056596204163552e-23 7.596397836984098e-07 2.189806572395858e-08  1.391793694264509e-23 7.048031199738485e-07 2.694148871652329e-08  4.264258783284386e-24 6.316737355366074e-07 4.07647070017853e-08  -1.994953372876012e-23 4.252704779885625e-07 5.245990332268068e-08  -3.109205482508871e-23 3.249218329876e-07 5.247416603650484e-08  -4.220619282978408e-23 2.248154315643077e-07 5.247502016619324e-08  -5.344585786778842e-23 1.235829632430052e-07 5.248045439874182e-08  1.984322899185667e-23 8.193387065989165e-07 8.810678921181008e-08  -2.030150401978741e-24 6.06471521918849e-07 7.225749110656384e-08  4.258256090720953e-23 9.36749751752053e-07 7.001408836722355e-10  4.271474904878898e-23 9.377939037488884e-07 5.536479501874679e-10  4.147269785153755e-23 9.289636226654234e-07 2.910769484955791e-09  4.230616541134089e-23 9.350070103849449e-07 1.446948820965862e-09  4.244240913940854e-23 9.36028284444171e-07 1.241048474277867e-09  4.186847192332344e-23 9.317647852884064e-07 2.147116183503219e-09  4.063021804160457e-23 9.229197938831257e-07 4.455324218820771e-09  4.026796126332e-23 9.202996875749948e-07 5.098136894079507e-09  3.969303929777232e-23 9.168822942307761e-07 6.859180249476177e-09  3.861728240464894e-23 9.083742475698097e-07 8.040690274533085e-09  3.799426739588423e-23 9.03593746215345e-07 8.871809242706369e-09  3.647025715381923e-23 8.924370986759654e-07 1.144222561987226e-08  3.436003632148092e-23 8.775736264100145e-07 1.558593286229785e-08  3.310351409276506e-23 8.685946210116428e-07 1.792467354598126e-08  2.993970194304621e-23 8.455279956681596e-07 2.335513463958617e-08  2.809475861440492e-23 8.314887714434289e-07 2.59336825896326e-08  2.575428939073966e-23 8.149772490471825e-07 3.050323284052817e-08  2.020515014169492e-23 7.746655359368081e-07 4.017372263860348e-08  1
[...]
<PointData  Tensors="f_58"> 
<DataArray  type="Float64"  Name="f_58"  NumberOfComponents="9" format="ascii">-1.4084812619996275e-06 -1.0543220853959590e-18 -9.4231181438664492e-19 -1.0543220853959590e-18 -3.9136497939397247e-03 -3.3293430155474846e-05 -9.4231181438664492e-19 -3.3293430155474846e-05 1.8264483119880817e-03  1.7995944991384761e-07 -9.7052227368309262e-19 -8.5940537178790544e-19 -9.7052227368309262e-19 -4.0177453467451192e-03 -8.0017821744271265e-05 -8.5940537178790544e-19 -8.0017821744271265e-05 1.8563654702800840e-03  1.9015877321640792e-07 -9.6986942112547392e-19 -8.6938902841298635e-19 -9.6986942112547392e-19 -3.3233890573715666e-03 5.8741805097257437e-06 -8.6938902841298635e-19 5.8741805097257437e-06 1.5254238992265731e-03  -1.6216507352287167e-08 -9.0596443495488855e-19 -7.8611803046508620e-19 -9.0596443495488855e-19 -3.9412500557618069e-03 4.0801823799543834e-06 -7.8611803046508620e-19 4.0801823799543834e-06 1.7904170970988603e-03  -4.5332161580710853e-08 -8.9099238638870418e-19 -8.0145004731584096e-19 -8.9099238638870418e-19 -3.0517266663146144e-03 -2.2255314480394152e-05 -8.0145004731584096e-19 -2.2255314480394152e-05 1.3940739935017947e-03  1.6079773450898845e-10 -8.4531557878557266e-19 -7.2485064599553937e-19 -8.4531557878557266e-19 -3.8706753285664298e-03 7.8618610204369247e-06 -7.2485064599553937e-19 7.8618610204369247e-06 1.7162960665042489e-03  8.0257593770157424e-09 -8.2810681590307160e-19 -7.4012710689935808e-19 -8.2810681590307160e-19 -3.1014161908121348e-03 -5.0336725813831157e-05 -7.4012710689935808e-19 -5.0336725813831157e-05 1.4158572519624426e-03  2.5996723155952926e-10 -7.9086350385784835e-19 -6.7391142414815693e-19 -7.9086350385784835e-19 -3.8092673481910015e-03 -1.3555778745758867e-05 -6.7391142414815693e-19 -1.3555778745758867e-05 1.6753349402312346e-03  -9.0380155060629154e-10 -7.7418012190048111e-19 -6.8553662258564716e-19 -7.7418012190048111e-19 -3.0682825585227474e-03 -3.3599742949791113e-05 -6.8553662258564716e-19 -3.3599742949791113e-05 1.4042219430871338e-03  -5.1607405709358600e-11 -7.4286835485433650e-19 -6.2676710109432983e-19 -7.4286835485433650e-19 -3.7588368830276833e-03 3.7120568568674511e-07 -6.2676710109432983e-19 3.7120568568674511e-07 1.6680849385012854e-03  5.2295338695527524e-12 -6.9414838445151594e-19 -5.8121338290873036e-19 -6.9414838445151594e-19 -3.7172804883024951e-03 -1.1409698480717733e-05 -5.8121338290873036e-19 -1.1409698480717733e-05 1.6600049783393350e-03  1.1604104975733901e-11 -6.7691691012720659e-19 -5.8789436306621114e-19 -6.7691691012720659e-19 -3.0235781945632360e-03 -1.8773407108137028e-05 -5.8789436306621114e-19 -1.8773407108137028e-05 1.3823437644693839e-03  1.1335400966788902e-13 -6.4215126905790096e-19 -5.3290424577297610e-19 -6.4215126905790096e-19 -3.5932625037541576e-03 -2.5325260171890836e-05 -5.3290424577297610e-19 -2.5325260171890836e-05 1.5745925702076702e-03  -1.4648884768179310e-13 -5.9588595889897571e-19 -4.8912126080209250e-19 -5.9588595889897571e-19 -3.5291970084934212e-03 -2.1875929137045226e-05 -4.8912126080209250e-19 -2.1875929137045226e-05 1.5621433316645344e-03  4.3480432189477236e-13 -5.8256289398862897e-19 -4.9392431868829756e-19 -5.8256289398862897e-19 -2.8751377997389494e-03 1.4098070146133208e-05 -4.9392431868829756e-19 1.4098070146133208e-05 1.3065633221281429e-03  2.9643450843033641e-14 -5.4986946444940555e-19 -4.4615804775911714e-19 -5.4986946444940555e-19 -3.4504024607268273e-03 -2.0100895121579164e-05 -4.4615804775911714e-19 -2.0100895121579164e-05 1.5419018803007906e-03  -3.0445758581009548e-15 -4.9763095497506139e-19 -3.9700227394703753e-19 -4.9763095497506139e-19 -3.3097347676209195e-03 -4.6475931753452689e-06 -3.9700227394703753e-19 -4.6475931753452689e-06 1.4876744197419209e-03  -4.5821493604509175e-15 -4.8806347210865812e-19 -4.0232428444270965e-19 -4.8806347210865812e-19 -2.6892731933443451e-03 3.7570704940056667e-05 -4.0232428444270965e-19 3.7570704940056667e-05 1.2198747087216106e-03  1.4917783847623098e-17 -4.4573245166186306e-19 -3.4766082616175817e-19 -4.4573245166186306e-19 -3.1561308070944291e-03 1.1944650215411564e-05 -3.4766082616175817e-19 1.1944650215411564e-05 1.4133187632937977e-03  6.1437763764472148e-17 -3.9069966898270082e-19 -3.0027100025054563e-19 -3.9069966898270082e-19 -2.9196531736481487e-03 1.5236021896623498e-06 -3.0027100025054563e-19 1.5236021896623498e-06 1.2936823028046635e-03  -1.9520741237907846e-16 -3.8600354481164184e-19 -3.0700113300699704e-19 -3.8600354481164184e-19 -2.4173283356567956e-03 5.5991243657838663e-05 -3.0700113300699704e-19 5.5991243657838663e-05 1.1061298935130619e-03  -1.6310571273648431e-17 -3.4180215433564970e-19 -2.5558778566195874e-19 -3.4180215433564970e-19 -2.7359833596176256e-03 7.4486746876121225e-06 -2.5558778566195874e-19 7.4486746876121225e-06 1.1977807144615282e-03  2.3855979994658854e-18 -2.9523974564192028e-19 -2.1455259305047488e-19 -2.9523974564192028e-19 -2.5171470917018882e-03 2.4895099323515617e-05 -2.1455259305047488e-19 2.4895099323515617e-05 1.1134067689712330e-03  -2.4154814471603953e-19 -2.9153323453896364e-19 -2.1578456138616212e-19 -2.9153323453896364e-19 -2.0186068611021705e-03 1.3353624456872765e-04 -2.1578456138616212e-19 1.3353624456872765e-04 9.2111256550053190e-04  -2.8966306587059403e-19 -2.4627527076961114e-19 -1.7344990168307783e-19 -2.4627527076961114e-19 -2.2471587811815972e-03 3.1926396699109867e-05 -1.7344990168307783e-19 3.1926396699109867e-05 9.9910635425489174e-04  2.8730394655131958e-20 -1.9792165593242293e-19 -1.3303060245582114e-19 -1.9792165593242293e-19 -1.9294956355541276e-03 4.4494994370266816e-05 -1.3303060245582114e-19 4.4494994370266816e-05 8.4951232726705067e-04  1.0287236897039876e-20 -2.0040636314769655e-19 -1.3444330533804309e-19 -2.0040636314769655e-19 -1.5780188377061738e-03 1.7038356540873592e-04 -1.3444330533804309e-19 1.7038356540873592e-04 7.3050115823655270e-04  -3.7177520569740268e-21 -1.5247059282569568e-19 -9.6935147635313113e-20 -1.5247059282569568e-19 -1.5968573725479369e-03 4.9743703981614656e-05 -9.6935147635313113e-20 4.9743703981614656e-05 6.9590713945012750e-04  8.4322730944575765e-22 -1.1254119674785929e-19 -6.6567317879967100e-20 -1.1254119674785929e-19 -1.2646194048550464e-03 5.7871791174349202e-05 -6.6567317879967100e-20 5.7871791174349202e-05 5.5217121225087644e-04  -2.6860226832449343e-21 -1.1815674987920871e-19 -6.5284633979377443e-20 -1.1815674987920871e-19 -1.0283847136826744e-03 1.9992641257536524e-04 -6.5284633979377443e-20 1.9992641257536524e-04 4.7577817297432496e-04  -1.7151909963945472e-22 -7.3914684368245957e-20 -3.8434619636536536e-20 -7.3914684368245957e-20 -9.0198176383488168e-04 6.4846306142431320e-05 -3.8434619636536536e-20 6.4846306142431320e-05 3.9252235090051250e-04  2.7303415059731055e-23 -4.1778855881981584e-20 -1.6864644835265195e-20 -4.1778855881981584e-20 -5.7051663076877453e-04 6.2459009326509203e-05 -1.6864644835265195e-20 6.2459009326509203e-05 2.4662012307690524e-04  -8.0251465856551081e-24 -4.9703754804362794e-20 -1.4050253303064678e-20 -4.9703754804362794e-20 -4.7866314790728217e-04 1.8577431076428869e-04 -1.4050253303064678e-20 1.8577431076428869e-04 2.0793538513306129e-04  -7.2803936762804084e-25 -1.7659130482588038e-20 -2.1645961871277783e-21 -1.7659130482588038e-20 -3.0788517171128938e-04 5.0250543541049607e-05 -2.1645961871277783e-21 5.0250543541049607e-05 1.2926154327613158e-04  -9.2313567180765651e-25 -1.7902719583552392e-21 5.8986636475900963e-21 -1.7902719583552392e-21 -1.1083487570058144e-04 3.5672860403458712e-05 5.8986636475900963e-21 3.5672860403458712e-05 4.3669046388254354e-05  4.9448452468107040e-24 -7.2234528051530748e-21 8.9660939675879265e-21 -7.2234528051530748e-21 -1.0476936936573431e-04 1.0643128130777772e-04 8.9660939675879265e-21 1.0643128130777772e-04 2.5986984729235818e-05  3.6622976200904842e-25 5.3243160930461036e-21 7.7013265482432218e-21 5.3243160930461036e-21 1.3271039135973427e-06 1.8933317945874151e-05 7.7013265482432218e-21 1.8933317945874151e-05 -6.2808816229752203e-06  -9.8943182771617684e-26 6.4590111491443186e-21 5.7127963164208925e-21 6.4590111491443186e-21 4.1564796655759221e-05 3.1888167410289824e-06 5.7127963164208925e-21 3.1888167410289824e-06 -2.1744551803334691e-05  1.6777235103761155e-25 4.8699259289390191e-21 7.7025642082808082e-21 4.8699259289390191e-21 1.6153116321632722e-05 2.2341949263767060e-05 7.7025642082808082e-21 2.2341949263767060e-05 -2.2497492591374789e-05  7.6377751050521595e-27 4.0229389320928344e-21 2.7372018003457111e-21 4.0229389320928344e-21 3.2633405434525746e-05 -3.0142123223422626e-06 2.7372018003457111e-21 -3.0142123223422626e-06 -1.5500049009479320e-05  2.3620813839293042e-31 1.7197888530910395e-21 7.3270351019585151e-22 1.7197888530910395e-21 1.6184444293054732e-05 -4.1817718765049074e-06 7.3270351019585151e-22 -4.1817718765049074e-06 -6.7662393162819523e-06  -1.9577166930301941e-27 1.6370084498384493e-21 8.8895802937254040e-22 1.6370084498384493e-21 3.3851773157606701e-06 -5.8998520699037424e-06 8.8895802937254040e-22 -5.8998520699037424e-06 -1.7092030761096607e-06  4.0546586122364970e-28 3.9434512700983786e-22 -5.0815411149909006e-23 3.9434512700983786e-22 4.3042619246952751e-06 -2.4524810692949751e-06 -5.0815411149909006e-23 -2.4524810692949751e-06 -1.1899247281800775e-06  -2.8146966606451923e-28 -5.2222362916170441e-23 -1.6115236284134674e-22 -5.2222362916170441e-23 -4.8588704448681185e-08 -7.8720380252552485e-07 -1.6115236284134674e-22 -7.8720380252552485e-07 4.3648952768759963e-07  7.8681975611382954e-28 -5.4548221253571479e-23 -2.9941916948020152e-22 -5.4548221253571479e-23 -1.5814266524167192e-06 -1.9038681367250481e-06 -2.9941916948020152e-22 -1.9038681367250481e-06 2.1848932237158713e-06  8.5559146697650361e-29 -6.5873165958033158e-23 -5.5096039108263419e-23 -6.5873165958033158e-23 -4.0602126859422815e-07 1.9565128830467992e-08 -5.5096039108263419e-23 1.9565128830467992e-08 2.5100806839617076e-07  -1.3948844637501746e-29 -1.6403597566689433e-23 -3.2235076240606326e-24 -1.6403597566689433e-23 -1.3779831225861297e-07 7.3273129393914699e-08 -3.2235076240606326e-24 7.3273129393914699e-08 4.6913178429112107e-08  1.1619481949176484e-29 -6.7301433155343309e-24 -1.1342358811447927e-23 -6.7301433155343309e-24 3.5801081055214266e-08 5.7335806611098741e-09 -1.1342358811447927e-23 5.7335806611098741e-09 5.8752368222001063e-08  2.6519478677230698e-30 -8.0357111557319066e-25 4.2419354809716990e-24 -8.0357111557319066e-25 -1.0421463628965741e-08 3.2819549184199488e-08 4.2419354809716990e-24 3.2819549184199488e-08 -1.4831204515015109e-08  -2.8337738662373827e-31 2.0554334178584424e-24 2.4553420122697071e-24 2.0554334178584424e-24 1.5308344349541990e-08 6.5497459968589802e-09 2.4553420122697071e-24 6.5497459968589802e-09 -9.4129651429153496e-09  -3.5098928097550908e-31 3.2597892953458306e-24 3.5073058628206608e-24 3.2597892953458306e-24 2.0087929190884875e-08 4.1386282970625357e-09 3.5073058628206608e-24 4.1386282970625357e-09 -1.6269534680950426e-08  2.9940205506536055e-32 1.2519386776813688e-24 6.1217808682822225e-25 1.2519386776813688e-24 1.3802851217506320e-08 -1.5211536997500668e-09 6.1217808682822225e-25 -1.5211536997500668e-09 -5.3202563827162138e-09  -1.5017537037171701e-33 2.1421731654834544e-25 -4.5742221956389108e-25 2.1421731654834544e-25 9.4606346518039912e-09 -2.6249842097892792e-09 -4.5742221956389108e-25 -2.6249842097892792e-09 -2.6114208131331105e-09  -1.2220322882634406e-32 -2.2846424495946034e-25 -3.0341581941265774e-25 -2.2846424495946034e-25 -2.5391194549615526e-09 -1.4937669024786446e-09 -3.0341581941265774e-25 -1.4937669024786446e-09 9.0179318111727290e-10  -1.5644379746992838e-34 -7.3046791541676882e-25 -1.1550025091221977e-24 -7.3046791541676882e-25 -7.0518761006719460e-10 -3.6423653081683269e-09 -1.1550025091221977e-24 -3.6423653081683269e-09 1.0681923458011596e-09  1.3514199682040881e-35 -9.4905885158062290e-25 -8.1958983049947522e-25 -9.4905885158062290e-25 -9.1196970654977567e-09 -1.5494071848494065e-09 -8.1958983049947522e-25 -1.5494071848494065e-09 3.6885761554106249e-09  9.4897648361784450e-35 -8.0115677486655121e-25 -1.0426592860618261e-24 -8.0115677486655121e-25 -2.2878509281931207e-09 -2.8754056527404733e-09 -1.0426592860618261e-24 -2.8754056527404733e-09 8.8756210042448307e-10  1.6823032360798340e-35 -5.0883178454939983e-25 -2.2914385695630203e-25 -5.0883178454939983e-25 -8.1523726882184455e-09 5.4817062097906714e-11 -2.2914385695630203e-25 5.4817062097906714e-11 3.2235970264610601e-09  -7.8012848471066776e-36 -5.9716629478724116e-26 2.1461799699591168e-25 -5.9716629478724116e-26 -4.1204426453075412e-09 1.5155322576201068e-09 2.1461799699591168e-25 1.5155322576201068e-09 2.2095338742837736e-09  1.5932405677485341e-35 3.1867621521206626e-26 1.8802458357550295e-25 3.1867621521206626e-26 -9.8646985076013055e-10 1.3176308422202443e-09 1.8802458357550295e-25 1.3176308422202443e-09 8.0865779072446883e-10  2.0062962230418183e-36 2.1656286571319321e-25 3.0011076797168203e-25 2.1656286571319321e-25 -5.3467092962389016e-10 7.8526047441053184e-10 3.0011076797168203e-25 7.8526047441053184e-10 6.0012667252928621e-10  -3.4841892461635298e-37 2.3781215095588003e-25 1.6180791783068233e-25 2.3781215095588003e-25 1.5829742458938100e-09 -1.1678224794262946e-10 1.6180791783068233e-25 -1.1678224794262946e-10 -4.4736819785418479e-10  -3.7247066934885057e-38 1.7916790988359295e-25 2.3072743100512530e-25 1.7916790988359295e-25 -6.3586920041737719e-10 4.3096215582939152e-10 2.3072743100512530e-25 4.3096215582939152e-10 5.6897975163481862e-10  3.6261158961038878e-38 8.9231961858757961e-26 -1.3669272853964753e-26 8.9231961858757961e-26 4.7843480101338988e-10 -5.6695196211654192e-10 -1.3669272853964753e-26 -5.6695196211654192e-10 2.4136512398625228e-10  8.1463707041846023e-41 1.8123089266117332e-26 1.6494857139932225e-26 1.8123089266117332e-26 6.7890910934201211e-12 -5.8116537099151878e-11 1.6494857139932225e-26 -5.8116537099151878e-11 -9.3690542904684661e-11  -1.7724376548871577e-38 4.5411038078404570e-27 -2.4431048422120156e-26 4.5411038078404570e-27 -3.6558038976233770e-10 -2.3210737092585422e-10 -2.4431048422120156e-26 -2.3210737092585422e-10 4.2328154385851807e-10  -1.5486834569954724e-39 8.2311111955562904e-27 3.9183394739290767e-26 8.2311111955562904e-27 4.0762108735525267e-10 4.9250739162368135e-10 3.9183394739290767e-26 4.9250739162368135e-10 1.9806925356793287e-11  4.0581343118131807e-39 -5.9716262548431952e-27 4.6873101342261497e-26 -5.9716262548431952e-27 -3.0660052207022503e-10 3.4973116116672930e-10 4.6873101342261497e-26 3.4973116116672930e-10 5.4096862344416763e-11  -5.5486350891248856e-39 -6.4637767496885265e-26 7.7706714192524290e-26 -6.4637767496885265e-26 -9.2655522165200113e-10 7.1859833020882494e-10 7.7706714192524290e-26 7.1859833020882494e-10 -2.0049833670905069e-10  7.0391358664365971e-39 -6.7388017053424091e-27 2.8570488168567664e-26 -6.7388017053424091e-27 -3.9808075403089912e-10 2.9244733795910999e-10 2.8570488168567664e-26 2.9244733795910999e-10 3.4689981107368487e-10  -1.8720464517476906e-22 -2.1227696259878589e-20 -1.1428726797221594e-20 -2.1227696259878589e-20 -4.9032010625179809e-04 -5.2101133817594627e-05 -1.1428726797221594e-20 -5.2101133817594627e-05 2.0959529773406069e-04  1.3854639011194715e-21 -2.4884649675258487e-20 -7.7827972395737880e-21 -2.4884649675258487e-20 -8.0196754351175091e-04 -7.1379044609152766e-05 -7.7827972395737880e-21 -7.1379044609152766e-05 3.5112986926666450e-04  -1.6775712634441655e-22 -5.9289578024759364e-21 -1.0525672310506017e-20 -5.9289578024759364e-21 -4.2737125294494701e-04 -1.6346209245442597e-04 -1.0525672310506017e-20 -1.6346209245442597e-04 1.8325411501806502e-04  5.7725595755195991e-24 -1.4923909543083458e-20 -1.1685316873796877e-20 -1.4923909543083458e-20 -2.3691414762744384e-04 -3.8830144377318917e-05 -1.1685316873796877e-20 -3.8830144377318917e-05 1.0091255991839031e-04  5.9728788263966654e-23 -6.2670197614698686e-21 -1.2277739262275677e-20 -6.2670197614698686e-21 -2.1715437895418775e-04 -1.2375708069355834e-04 -1.2277739262275677e-20 -1.2375708069355834e-04 7.7919713983301393e-05  4.0082078839838521e-24 -9.1614207800998093e-21 -9.9440930833334875e-21 -9.1614207800998093e-21 -6.9429867761112467e-05 -2.7797490398401298e-05 -9.9440930833334875e-21 -2.7797490398401298e-05 2.7934257737095301e-05  -1.1383601761326926e-23 -4.9210627077666023e-21 -1.0776278376417429e-20 -4.9210627077666023e-21 -7.1500952957336784e-05 -8.1400446290894147e-05 -1.0776278376417429e-20 -8.1400446290894147e-05 1.4178248789587527e-05  -1.1613992287190523e-24 -4.5718889916211822e-21 -6.1157064877130036e-21 -4.5718889916211822e-21 1.4322676236747595e-05 -1.3771486359018373e-05 -6.1157064877130036e-21 -1.3771486359018373e-05 -1.4054705354275265e-05  1.2790738410290601e-24 -5.3438081561756651e-21 -9.5585257206490941e-21 -5.3438081561756651e-21 -1.9344977653211184e-05 -4.7327225100045540e-05 -9.5585257206490941e-21 -4.7327225100045540e-05 6.1612926445764997e-07  -4.5649141235873889e-26 -1.5358746902688986e-22 -5.4965712710048410e-22 -1.5358746902688986e-22 2.9057367704474345e-05 4.3029759672395272e-06 -5.4965712710048410e-22 4.3029759672395272e-06 -1.3316459111943347e-05  2.9029811711183114e-25 -1.6655991794675815e-21 -2.6021053956626283e-21 -1.6655991794675815e-21 3.9315732488850200e-05 2.6563177020658622e-06 -2.6021053956626283e-21 2.6563177020658622e-06 -1.7132500899574010e-05  -9.2860505895287629e-26 -1.8096044126017608e-21 -1.7204524870364520e-21 -1.8096044126017608e-21 1.0068546611415843e-05 8.5909615018815743e-07 -1.7204524870364520e-21 8.5909615018815743e-07 -9.9563726260607845e-06  4.9166602795584375e-27 1.3110542906773253e-22 4.5118916018571902e-23 1.3110542906773253e-22 1.2889406891346383e-05 3.1188109227391084e-06 4.5118916018571902e-23 3.1188109227391084e-06 -5.1027897333597709e-06  1.8623523589279197e-26 -7.0861631004391251e-22 -2.9049862580817876e-22 -7.0861631004391251e-22 4.4304537024615882e-06 5.2953346868030327e-06 -2.9049862580817876e-22 5.2953346868030327e-06 -1.3719229165397405e-06  6.4013571502417043e-28 1.7657390972435178e-22 1.9241322826789780e-22 1.7657390972435178e-22 4.4833200675146115e-06 1.6152756193425981e-06 1.9241322826789780e-22 1.6152756193425981e-06 -1.5381046251914768e-06  -5.4096763863386501e-27 -3.4314153333905253e-22 5.3953388926449738e-23 -3.4314153333905253e-22 1.0327579667217490e-06 4.4588434394547543e-06 5.3953388926449738e-23 4.4588434394547543e-06 7.3150273640521101e-07  -3.3643383133613123e-28 4.8128664838618477e-23 1.0528639081677441e-22 4.8128664838618477e-23 1.3262349136994028e-07 6.5957853077984158e-07 1.0528639081677441e-22 6.5957853077984158e-07 1.5687151652346448e-07  7.0502242222229899e-28 -6.4324312936457701e-23 8.1900606251519156e-23 -6.4324312936457701e-23 -5.4435102364568838e-07 1.6896148917469101e-06 8.1900606251519156e-23 1.6896148917469101e-06 1.2894268408705005e-06  1.1384825425020201e-28 3.3071554830101572e-23 4.2645299064169795e-23 3.3071554830101572e-23 -2.3099942208752858e-07 3.7702004975136301e-08 4.2645299064169795e-23 3.7702004975136301e-08 1.3393818817743843e-07  -1.4532645849312010e-28 4.7878706649077291e-24 3.2989376021736597e-23 4.7878706649077291e-24 -2.4857902646439538e-07 4.7968530808005118e-07 3.2989376021736597e-23 4.7968530808005118e-07 6.9991648655928966e-07  -2.9415480108517385e-29 8.3430522504537137e-24 7.2496376297204536e-24 8.3430522504537137e-24 -2.1575020550162910e-07 -6.1382455156463327e-08 7.2496376297204536e-24 -6.1382455156463327e-08 1.1268250190268549e-07  9.1709462665358270e-30 1.4856494421579686e-23 7.7185241306347381e-24 1.4856494421579686e-23 5.8729054696278989e-08 -7.0012052937579514e-09 7.7185241306347381e-24 -7.0012052937579514e-09 5.5854776086130851e-08  5.4411742866816759e-30 9.7425655993814295e-25 1.1691955838240322e-24 9.7425655993814295e-25 -8.0628825053535726e-08 -2.5481600887095512e-08 1.1691955838240322e-24 -2.5481600887095512e-08 2.6153914018014951e-08  -4.0968019934918417e-30 1.2732194119112600e-23 6.2911455554722598e-24 1.2732194119