<?xml version="1.0"?>
<VTKFile type="UnstructuredGrid"  version="0.1"  >
<UnstructuredGrid>
<Piece  NumberOfPoints="10324" NumberOfCells="20301">
<Points>
<DataArray  type="Float64"  NumberOfComponents="3"  format="ascii">4.67879069290115e-23 9.739280004218834e-07 1.168322723194976e-38  4.667657718197442e-23 9.729252312073407e-07 1.16585070622525e-38  4.670737745518599e-23 9.733937811299548e-07 1.911257246971979e-10  4.674687491597103e-23 9.738000778573666e-07 2.416609527618039e-10  4.670034842591251e-23 9.735451776551778e-07 4.058341171538256e-10  4.675480616557918e-23 9.739929520813918e-07 3.630968312272253e-10  4.678589875629298e-23 9.74112116763869e-07 2.022043537991005e-10  4.672402993672952e-23 9.738115970557859e-07 4.589494311798301e-10  4.674185411394599e-23 9.74042360890422e-07 5.291673500753104e-10  4.677293949513178e-23 9.741930467742541e-07 3.998610116573792e-10  4.666058633120551e-23 9.730204290680063e-07 2.392306397940616e-10  4.663330289945338e-23 9.727362859040542e-07 2.008347819865109e-10  4.662904069496083e-23 9.728434178967291e-07 3.46357299790265e-10  4.663353530478787e-23 9.729937358631093e-07 4.561914198860761e-10  4.666592183682011e-23 9.732405032481361e-07 4.112468577283547e-10  4.660644200100233e-23 9.727912637590917e-07 4.977541015339419e-10  4.659988625651504e-23 9.726338866787814e-07 3.994259180839856e-10  4.6710231995311e-23 9.738824288885419e-07 6.540620715976175e-10  4.6688115814574e-23 9.736427996043057e-07 6.136376340134468e-10  4.659832758408266e-23 9.728699920582621e-07 6.495705707359791e-10  4.676128748376971e-23 9.742723608929223e-07 5.841271183821895e-10  4.657184032588357e-23 9.725935394332169e-07 6.116939580016258e-10  4.665918875055782e-23 9.733764965297615e-07 6.078863889175712e-10  4.656850384073798e-23 9.724032208115514e-07 4.514277228530424e-10  4.663010166862998e-23 9.731241178148823e-07 6.175008167014241e-10  4.679213977527093e-23 9.744134846623609e-07 4.473581508040508e-10  4.672769559093405e-23 9.741081943871802e-07 7.225294847548626e-10  4.659686140129638e-23 9.724911912674044e-07 2.839759803782072e-10  4.680144144243893e-23 9.743343920375136e-07 2.844835563732038e-10  4.653952915692726e-23 9.723151072218352e-07 6.24294883563123e-10  4.656037438840074e-23 9.727104350976924e-07 8.318656060274606e-10  4.657206384196031e-23 9.722460170335494e-07 2.621583044944777e-10  4.678457960945398e-23 9.745207063491994e-07 6.226757575546207e-10  4.667914686951895e-23 9.737362327747732e-07 7.878558796966456e-10  4.801253414641938e-23 9.849584617818553e-07 1.195514909861953e-38  4.79012043993823e-23 9.839556925673124e-07 1.193042892892228e-38  4.793106256396419e-23 9.844132423192652e-07 1.88611314182825e-10  4.778987465234522e-23 9.829529233527695e-07 1.190570875922502e-38  4.781956556085074e-23 9.834051022234992e-07 1.847469417662401e-10  4.767854490530815e-23 9.819501541382268e-07 1.188098858952777e-38  4.771022559457956e-23 9.82413752273933e-07 1.782438549111524e-10  4.756721515827106e-23 9.809473849236837e-07 1.185626841983052e-38  4.760042599880113e-23 9.814227450238241e-07 1.76223442068675e-10  4.73445556641969e-23 9.789418464945978e-07 1.180682808043602e-38  4.723322591715983e-23 9.779390772800551e-07 1.178210791073877e-38  4.727363635475824e-23 9.784820514161374e-07 1.789892726620209e-10  4.689923667604858e-23 9.749307696364264e-07 1.170794740164701e-38  4.682959602680809e-23 9.744410297385655e-07 1.375273060777468e-10  4.656524743493734e-23 9.719224619927976e-07 1.163378689255525e-38  4.660961387838746e-23 9.724568596641082e-07 1.347802749310494e-10  4.645391768790026e-23 9.709196927782549e-07 1.1609066722858e-38  4.649409502264051e-23 9.714574682640007e-07 1.758902262160427e-10  4.634258794086318e-23 9.69916923563712e-07 1.158434655316075e-38  4.62312581938261e-23 9.68914154349169e-07 1.15596263834635e-38  4.626688361517531e-23 9.694157521247992e-07 1.80712507003827e-10  4.682076259284314e-23 9.745268069056942e-07 3.028689730323444e-10  4.653309804984768e-23 9.724513887183041e-07 8.185026429262856e-10  4.659108406019282e-23 9.729826894034893e-07 8.275117789453805e-10  4.674672104296379e-23 9.743418248094937e-07 7.847938697250661e-10  4.682086432924114e-23 9.746585877726116e-07 4.33733479941494e-10  4.795976049556506e-23 9.8476070557375e-07 2.775865805396577e-10  4.784949432868034e-23 9.837540032018343e-07 2.640735448112492e-10  4.773418282421504e-23 9.827368782324352e-07 2.855822724951173e-10  4.728928938124084e-23 9.78746632227933e-07 3.025801559890892e-10  4.654002916541793e-23 9.719844969236952e-07 2.891809093185899e-10  4.651025124453443e-23 9.717208405507253e-07 2.937402031383124e-10  4.804234015404323e-23 9.853662424567753e-07 1.393120252636566e-10  4.799519812486314e-23 9.850627126879307e-07 2.603999065168966e-10  4.788259093371826e-23 9.840700485389315e-07 2.820111656763976e-10  4.777182982014318e-23 9.830692755149522e-07 2.788855613448196e-10  4.730431719581237e-23 9.789800537773912e-07 4.006431852383169e-10  4.732926700623641e-23 9.790306382668904e-07 2.264997608801625e-10  4.792051691591311e-23 9.845100422881505e-07 3.80398036334572e-10  4.781141288255488e-23 9.835112536451914e-07 3.643311613290372e-10  4.768623956296641e-23 9.824117418899229e-07 3.922804369712787e-10  4.725068674194432e-23 9.784714278986541e-07 3.750774906129939e-10  4.647520585677278e-23 9.714756368749665e-07 3.641973179082295e-10  4.795614908354365e-23 9.849088242616346e-07 4.582339760921559e-10  4.78450856242071e-23 9.838968636335868e-07 4.466440562093476e-10  4.773366368387766e-23 9.828988276254466e-07 4.522076659664128e-10  4.727500863877404e-23 9.788502015524024e-07 5.347789733627033e-10  4.650736446749361e-23 9.718905049110335e-07 4.894063394572042e-10  4.653936056484246e-23 9.721472219821125e-07 4.579281863409818e-10  4.762261266724777e-23 9.81740437917683e-07 2.940765924298387e-10  4.685385173622832e-23 9.747529999058599e-07 2.310214655589215e-10  4.629162454654621e-23 9.697220476028918e-07 2.641614864907428e-10  4.778704349089827e-23 9.833049840012424e-07 3.775614837479418e-10  4.766386122594727e-23 9.820977860008179e-07 2.798906883873865e-10  4.755693756763843e-23 9.810946754332009e-07 2.39862816203843e-10  4.723107477833803e-23 9.782165109763933e-07 2.968094323306468e-10  4.641958084218869e-23 9.709175874308762e-07 3.071734637248063e-10  4.645164006006395e-23 9.712085002147121e-07 3.093224842071153e-10  4.622480508511325e-23 9.691457377488074e-07 2.897078356274837e-10  4.718467278792356e-23 9.777215945677037e-07 2.198449971208075e-10  4.719734131580691e-23 9.779258998684074e-07 3.100423429149104e-10  4.618454552008367e-23 9.686890054545145e-07 1.956014654651706e-10  4.619551062460912e-23 9.688751609601977e-07 2.829920898385584e-10  4.684885896302455e-23 9.748982798194669e-07 4.212722822461564e-10  4.688746938662484e-23 9.750506341369636e-07 2.258548210649863e-10  4.630399519347941e-23 9.699362479868985e-07 3.669369886600576e-10  4.633494060839288e-23 9.700521638934885e-07 2.041213771038346e-10  4.752509456465107e-23 9.80794108668215e-07 2.261123239945368e-10  4.752318449421618e-23 9.809207347021325e-07 3.699427429096925e-10  4.753528516310427e-23 9.811168519277938e-07 4.570668327803374e-10  4.757377016096891e-23 9.813864699736233e-07 3.800428345246075e-10  4.624238107790306e-23 9.694046897264431e-07 3.903493441055079e-10  4.732916773607626e-23 9.791868996617306e-07 3.836553018329359e-10  4.719672496755204e-23 9.780781568637173e-07 4.678509097668012e-10  4.641631529047964e-23 9.710915498166523e-07 5.105493244209002e-10  4.619117074789324e-23 9.689986169816365e-07 4.45538245598263e-10  4.627811656350968e-23 9.697931918416543e-07 4.569748199929163e-10  4.7161116849854e-23 9.776995195215049e-07 4.099429787468251e-10  4.765076356033801e-23 9.821853923082006e-07 4.854702796846527e-10  4.789543166793594e-23 9.842952701073439e-07 3.915736824129747e-10  4.774941267317945e-23 9.831376579523275e-07 5.491837081451957e-10  4.625542446102504e-23 9.696083082368798e-07 4.764835038065635e-10  4.721349839539179e-23 9.783222072722554e-07 5.608197115672652e-10  4.620335997356913e-23 9.69192556756756e-07 5.296872362942087e-10  4.724834361565283e-23 9.785997737955968e-07 5.245283929421724e-10  4.762177164766498e-23 9.81929704361746e-07 4.909182674519977e-10  4.797981561560813e-23 9.851433382944178e-07 4.795788389017944e-10  4.644371727460851e-23 9.713590379887137e-07 5.312223654584047e-10  4.792365010698237e-23 9.846731299328919e-07 5.152644048119742e-10  4.781528236204756e-23 9.836773409556255e-07 4.955652989604279e-10  4.769734934657411e-23 9.8264425557762e-07 5.247260900366824e-10  4.64745444524318e-23 9.71625668606399e-07 5.201864500279303e-10  4.729863164889078e-23 9.790870227122618e-07 5.588229741038719e-10  4.75843004977711e-23 9.816259922740947e-07 5.247162931991794e-10  4.632023385495943e-23 9.701110757130021e-07 3.954998551829277e-10  4.687336809382322e-23 9.751191392843884e-07 4.213731225034543e-10  4.749405748805021e-23 9.807009730546824e-07 4.125338436904082e-10  4.801325126474112e-23 9.853083688017262e-07 3.434477922577406e-10  4.616236004278854e-23 9.687939869971267e-07 5.004120226361516e-10  4.638618249912346e-23 9.70831675829267e-07 5.220873928823038e-10  4.716688453410406e-23 9.778704884018171e-07 5.289611777803126e-10  4.638751351296093e-23 9.707009886421779e-07 3.79411498948273e-10  4.616553249791374e-23 9.686861161156608e-07 3.639662057309868e-10  4.640622569866853e-23 9.70696054648312e-07 2.05933119922366e-10  4.749953894188972e-23 9.808732987077815e-07 5.354869498514384e-10  4.785773509922396e-23 9.841232728131412e-07 5.591168938191256e-10  4.628967758590694e-23 9.699954495349296e-07 5.551000809475832e-10  4.77823637181631e-23 9.834283195366757e-07 5.430486646738566e-10  4.681470884491478e-23 9.747784747396142e-07 6.090641207809918e-10  4.754402976967807e-23 9.813260699615726e-07 5.87520452744521e-10  4.621773261908184e-23 9.694451428651095e-07 6.528160626969753e-10  4.788862947589096e-23 9.844104068795902e-07 5.679791537775267e-10  4.625132406258893e-23 9.697259334817067e-07
[...]
<PointData  Vectors="f_25"> 
<DataArray  type="Float64"  Name="f_25"  NumberOfComponents="3" format="ascii">0.0000000000000000e+00 7.0548050434818189e-10 -4.0241712136506596e-10  0.0000000000000000e+00 6.7899751730190905e-10 -4.1205473635812204e-10  0.0000000000000000e+00 6.8953348793104565e-10 -4.0618437233812580e-10  0.0000000000000000e+00 6.9969544241056098e-10 -4.0187810761918898e-10  0.0000000000000000e+00 6.9141450836664908e-10 -4.0315391621360700e-10  0.0000000000000000e+00 7.0346131423398136e-10 -3.9899182864535425e-10  0.0000000000000000e+00 7.0821374845598553e-10 -3.9896293737396021e-10  0.0000000000000000e+00 6.9778915342772268e-10 -4.0012685176557553e-10  0.0000000000000000e+00 7.0302643986931153e-10 -3.9723788346292249e-10  0.0000000000000000e+00 7.0826833992606610e-10 -3.9663437910352970e-10  0.0000000000000000e+00 6.7930028735853744e-10 -4.0937869180568062e-10  0.0000000000000000e+00 6.7225826884552559e-10 -4.1220480484729939e-10  0.0000000000000000e+00 6.7373452628402658e-10 -4.1016475497640539e-10  0.0000000000000000e+00 6.7663169939125813e-10 -4.0798872880004495e-10  0.0000000000000000e+00 6.8343705138756049e-10 -4.0603136873242170e-10  0.0000000000000000e+00 6.7102568235991299e-10 -4.0949540645991643e-10  0.0000000000000000e+00 6.6782536170376083e-10 -4.1161921682264092e-10  0.0000000000000000e+00 6.9763439278391090e-10 -3.9793343370558268e-10  0.0000000000000000e+00 6.9188920576996913e-10 -4.0063816687610014e-10  0.0000000000000000e+00 6.7168902694621876e-10 -4.0764855992235486e-10  0.0000000000000000e+00 7.0837213443941019e-10 -3.9440957502836455e-10  0.0000000000000000e+00 6.6492104156538823e-10 -4.1038208312240239e-10  0.0000000000000000e+00 6.8509308668083860e-10 -4.0327076163709354e-10  0.0000000000000000e+00 6.6138772411508841e-10 -4.1321739569050775e-10  0.0000000000000000e+00 6.7850754465160692e-10 -4.0557058782558590e-10  0.0000000000000000e+00 7.1348574890929275e-10 -3.9391597072047763e-10  0.0000000000000000e+00 7.0270699958926163e-10 -3.9508829800186246e-10  0.0000000000000000e+00 6.6511393306815250e-10 -4.1369823040604927e-10  0.0000000000000000e+00 7.1317881035724647e-10 -3.9596804955090909e-10  0.0000000000000000e+00 6.5764655243379143e-10 -4.1266555683626582e-10  0.0000000000000000e+00 6.6597913400113473e-10 -4.0768112595545661e-10  0.0000000000000000e+00 6.5888717173317654e-10 -4.1594629057379944e-10  0.0000000000000000e+00 7.1433833325086348e-10 -3.9143530033559679e-10  0.0000000000000000e+00 6.9254960096636691e-10 -3.9838182348810098e-10  0.0000000000000000e+00 8.5143771593806745e-10 -2.0532943742049347e-10  0.0000000000000000e+00 8.5379951673647213e-10 -2.1877533089743658e-10  0.0000000000000000e+00 8.5017887143595947e-10 -2.1242019513525697e-10  0.0000000000000000e+00 8.5634553919461904e-10 -2.3361737965924954e-10  0.0000000000000000e+00 8.5244689327966886e-10 -2.2668752744075936e-10  0.0000000000000000e+00 8.5904466192867400e-10 -2.5040892966883804e-10  0.0000000000000000e+00 8.5479953603443369e-10 -2.4239441414574142e-10  0.0000000000000000e+00 8.6228610731715173e-10 -2.6989978970312986e-10  0.0000000000000000e+00 8.5722202150217795e-10 -2.6037613440202951e-10  0.0000000000000000e+00 8.3909258550389525e-10 -3.2906687652019653e-10  0.0000000000000000e+00 8.1206104645379225e-10 -3.4862974660423503e-10  0.0000000000000000e+00 8.2311579510638818e-10 -3.3681671440176145e-10  0.0000000000000000e+00 7.3204282265757832e-10 -3.9153709742362085e-10  0.0000000000000000e+00 7.1757483935788377e-10 -3.9587423653745263e-10  0.0000000000000000e+00 6.5256257447622124e-10 -4.2060096903481578e-10  0.0000000000000000e+00 6.6549712716430074e-10 -4.1507751194191624e-10  0.0000000000000000e+00 6.2619637108826883e-10 -4.2816704839703696e-10  0.0000000000000000e+00 6.3900411785490872e-10 -4.2283766676531861e-10  0.0000000000000000e+00 5.9988072901887719e-10 -4.3483709063641331e-10  0.0000000000000000e+00 5.7362163948245645e-10 -4.4068884779676313e-10  0.0000000000000000e+00 5.8569975623734732e-10 -4.3644439297749530e-10  0.0000000000000000e+00 7.1801809156988514e-10 -3.9374431284635542e-10  0.0000000000000000e+00 6.5948888209677706e-10 -4.1003448438830139e-10  0.0000000000000000e+00 6.7295607605589875e-10 -4.0527145154403072e-10  0.0000000000000000e+00 7.0800791844455082e-10 -3.9214005594507214e-10  0.0000000000000000e+00 7.1999433257939251e-10 -3.9133343521893773e-10  0.0000000000000000e+00 8.4824402939314713e-10 -2.0769271354691007e-10  0.0000000000000000e+00 8.5047973542917356e-10 -2.2146208158150100e-10  0.0000000000000000e+00 8.5227018424414148e-10 -2.3688897580378487e-10  0.0000000000000000e+00 8.2724582571377780e-10 -3.3050253508479332e-10  0.0000000000000000e+00 6.5185339853424498e-10 -4.1791407633308134e-10  0.0000000000000000e+00 6.4497498745622088e-10 -4.1996819641037399e-10  0.0000000000000000e+00 8.4881656787847518e-10 -2.0014768385732565e-10  0.0000000000000000e+00 8.4790115621738385e-10 -2.0380830376746109e-10  0.0000000000000000e+00 8.4962053400185875e-10 -2.1697394476205361e-10  0.0000000000000000e+00 8.5175009891586122e-10 -2.3161920487653846e-10  0.0000000000000000e+00 8.3054034574280529e-10 -3.2414677604954777e-10  0.0000000000000000e+00 8.3565357425011684e-10 -3.2450830117107054e-10  0.0000000000000000e+00 8.4738873977308293e-10 -2.1093434794477951e-10  0.0000000000000000e+00 8.4953830463585984e-10 -2.2492787278449802e-10  0.0000000000000000e+00 8.5118976232826506e-10 -2.4218906073553367e-10  0.0000000000000000e+00 8.1884571574450893e-10 -3.3552403887985823e-10  0.0000000000000000e+00 6.3804377329944939e-10 -4.2131520022755580e-10  0.0000000000000000e+00 8.4562631919526126e-10 -2.0562863312601678e-10  0.0000000000000000e+00 8.4761513235734019e-10 -2.1928185829902511e-10  0.0000000000000000e+00 8.4932765227224506e-10 -2.3417313225393654e-10  0.0000000000000000e+00 8.2459322634880995e-10 -3.2605022205599326e-10  0.0000000000000000e+00 6.4781115474515520e-10 -4.1716335836295974e-10  0.0000000000000000e+00 6.5469712947031692e-10 -4.1531423748161053e-10  0.0000000000000000e+00 8.5415828477395696e-10 -2.5408435414941341e-10  0.0000000000000000e+00 7.2475038496128046e-10 -3.9179454215207260e-10  0.0000000000000000e+00 5.9318517295989200e-10 -4.3402997965871300e-10  0.0000000000000000e+00 8.4975876727189151e-10 -2.2798355480502659e-10  0.0000000000000000e+00 8.5376786672841368e-10 -2.4762775246828902e-10  0.0000000000000000e+00 8.5656715764266268e-10 -2.6690128544715638e-10  0.0000000000000000e+00 8.1386878551414111e-10 -3.4112941886064912e-10  0.0000000000000000e+00 6.2396280622227440e-10 -4.2585920958149000e-10  0.0000000000000000e+00 6.3149830483825170e-10 -4.2373204877954151e-10  0.0000000000000000e+00 5.7803995357966720e-10 -4.3720418114345556e-10  0.0000000000000000e+00 8.0254479360828564e-10 -3.5062652396516188e-10  0.0000000000000000e+00 8.0619643263862570e-10 -3.4639663606110643e-10  0.0000000000000000e+00 5.6671855666564651e-10 -4.4038881492860879e-10  0.0000000000000000e+00 5.7107318860412426e-10 -4.3875426859025847e-10  0.0000000000000000e+00 7.2633549847620511e-10 -3.8871097348740398e-10  0.0000000000000000e+00 7.3254529509694427e-10 -3.8841781538966124e-10  0.0000000000000000e+00 5.9809366802702965e-10 -4.3193598100580379e-10  0.0000000000000000e+00 6.0211400306681714e-10 -4.3243667174066590e-10  0.0000000000000000e+00 8.5682410497486005e-10 -2.7418166720199015e-10  0.0000000000000000e+00 8.5359331828928766e-10 -2.7113054442457023e-10  0.0000000000000000e+00 8.5171722793477165e-10 -2.6654172186626272e-10  0.0000000000000000e+00 8.5315990502107188e-10 -2.6091211619616251e-10  0.0000000000000000e+00 5.8418425948822356e-10 -4.3496078740104729e-10  0.0000000000000000e+00 8.3566775117734486e-10 -3.1896730714184329e-10  0.0000000000000000e+00 8.0720450321027519e-10 -3.4237827768722022e-10  0.0000000000000000e+00 6.2700298289553327e-10 -4.2308061405218347e-10  0.0000000000000000e+00 5.7337063576396426e-10 -4.3685152186110183e-10  0.0000000000000000e+00 5.9383642698568685e-10 -4.3214411274291869e-10  0.0000000000000000e+00 7.9869189616835294e-10 -3.4955647072374149e-10  0.0000000000000000e+00 8.4999149529089855e-10 -2.4596651283279203e-10  0.0000000000000000e+00 8.4765865285139521e-10 -2.1381403721836561e-10  0.0000000000000000e+00 8.4742919768548236e-10 -2.3036852397685399e-10  0.0000000000000000e+00 5.8894379625436696e-10 -4.3311852314889128e-10  0.0000000000000000e+00 8.1151287472813552e-10 -3.3700765038979995e-10  0.0000000000000000e+00 5.7790127149098355e-10 -4.3513815207666773e-10  0.0000000000000000e+00 8.1896564475556384e-10 -3.3169691717333141e-10  0.0000000000000000e+00 8.5025510508070060e-10 -2.5049190586416002e-10  0.0000000000000000e+00 8.4494631170261498e-10 -2.0261855935358675e-10  0.0000000000000000e+00 6.3375679537424069e-10 -4.2095432374217004e-10  0.0000000000000000e+00 8.4529224239474902e-10 -2.0865024212146656e-10  0.0000000000000000e+00 8.4730461310836857e-10 -2.2237757307013429e-10  0.0000000000000000e+00 8.4858078998769329e-10 -2.3820702170600641e-10  0.0000000000000000e+00 6.4073014270884654e-10 -4.1901002488316430e-10  0.0000000000000000e+00 8.2950273437623382e-10 -3.2012268990613616e-10  0.0000000000000000e+00 8.4999331214320484e-10 -2.5612618974969991e-10  0.0000000000000000e+00 6.0243305357545159e-10 -4.3061920174309409e-10  0.0000000000000000e+00 7.3203801320717839e-10 -3.8613100164949580e-10  0.0000000000000000e+00 8.5256032479376464e-10 -2.7659823557558546e-10  0.0000000000000000e+00 8.4636885125012715e-10 -2.0067219244033307e-10  0.0000000000000000e+00 5.6779847062559272e-10 -4.3754909006324182e-10  0.0000000000000000e+00 6.2022014277279519e-10 -4.2484429384838908e-10  0.0000000000000000e+00 8.0093474656877015e-10 -3.4565472814482597e-10  0.0000000000000000e+00 6.1784116949893633e-10 -4.2681972089051558e-10  0.0000000000000000e+00 5.6574562156970897e-10 -4.3914487676218298e-10  0.0000000000000000e+00 6.1892385236339393e-10 -4.2814858231929951e-10  0.0000000000000000e+00 8.4992575205518810e-10 -2.7227873409193344e-10  0.0000000000000000e+00 8.4564843889485294e-10 -2.1602333857793018e-10  0.0000000000000000e+00 5.9843634062226201e-10 -4.3015282323129980e-10  0.0000000000000000e+00 8.4704219902831898e-10 -2.2599660605957178e-10  0.0000000000000000e+00 7.2110127972979529e-10 -3.8866190686536330e-10  0.0000000000000000e+00 8.4896833934651446e-10 -2.6211312995174939e-10  0.0000000000000000e+00 5.8369027953079595e-10 -4.3275515621464337e-10  0.0000000000000000e+00 8.4504201884901572e-10 -2.1210749439562011e-10  0.0000000000000000e+00 5.9103257787110448e-10 -4.3124359882918919e-10  0.0000000000000000e+00 8.4636573816270095e-10 -2.5226474093691546e-10  0.0000000000000000e+00 8.4573692961742503e-10 -2.5803559340149703e-10  0.0000000000000000e+00 6.0715353131780969e-10 -4.3022693803502236e-10  0.0000000000000000e+00 7.3741771671083975e-10 -3.8503520662878153e-10  0.0000000000000000e+00 6.5056817007160393e-10 -4.1458860249739003e-10  0.0000000000000000e+00 5.6173610894014600e-10 -4.3867220897134943e-10  0.0000000000000000e+00 6.2269000242692181e-10 -4.2232356681434298e-10  0.0000000000000000e+00 5.7122285550678504e-10 -4.3555127148010661e-10  0.0000000000000000e+00 7.2871875794465150e-10 -3.8509956681017550e-10  0.0000000000000000e+00 8.4669373657555706e-10 -2.4724960464294128e-10  0.0000000000000000e+00 6.1367287298580145e-10 -4.2654533569169080e-10  0.0000000000000000e+00 6.0636506249214077e-10 -4.2852376298374949e-10  0.0000000000000000e+00 8.4396611211876976e-10 -2.0009468956040904e-10  0.0000000000000000e+00 8.4320376346906329e-10 -2.0391911518658741e-10  0.0000000000000000e+00 7.3620687222691073e-10 -3.8316109781920303e-10  0.0000000000000000e+00 8.4750097670561005e-10 -2.4239920957287822e-10  0.0000000000000000e+00 6.1261672683278170e-10 -4.2855342569279291e-10  0.0000000000000000e+00 8.5503674297695854e-10 -2.8090156744009045e-10  0.0000000000000000e+00 8.3488607410145530e-10 -3.1483738904948715e-10  0.0000000000000000e+00 8.4489960919434094e-10 -2.1980883399437235e-10  0.0000000000000000e+00 8.1866907624628205e-10 -3.2746337966533553e-10  0.0000000000000000e+00 8.5154418272778704e-10 -2.8220562336024265e-10  0.0000000000000000e+00 5.6141735515790755e-10 -4.4052040532422765e-10  0.0000000000000000e+00 8.4611816568768825e-10 -2.3441493601502380e-10  0.0000000000000000e+00 8.4189682573944082e-10 -2.0109027171370615e-10  0.0000000000000000e+00 8.4222740504974852e-10 -3.1712571380231910e-10  0.0000000000000000e+00 6.2941400783356990e-10 -4.2028252553514543e-10  0.0000000000000000e+00 8.2249298286087266e-10 -3.2153425586168036e-10  0.0000000000000000e+00 8.4473873069654248e-10 -1.9814600368555918e-10  0.0000000000000000e+00 7.9658078409548465e-10 -3.5298297045268136e-10  0.0000000000000000e+00 5.6442887505446771e-10 -4.3655506689998215e-10  0.0000000000000000e+00 7.9426876628791139e-10 -3.4895597745791540e-10  0.0000000000000000e+00 8.0315618193761236e-10 -3.4100841454200748e-10  0.0000000000000000e+00 8.4884320185182829e-10 -2.7791631125114848e-10  0.0000000000000000e+00 8.4080478531818179e-10 -3.1275608518933781e-10  0.0000000000000000e+00 7.9229300388839086e-10 -3.5280152787645263e-10  0.0000000000000000e+00 6.1122190777016376e-10 -4.3067513484772540e-10  0.0000000000000000e+00 8.4286503619701411e-10 -2.0653448212888665e-10  0.0000000000000000e+00 8.4754663362701381e-10 -2.6761934616845293e-10  0.0000000000000000e+00 6.4380102688476526e-10 -4.1626985948059008e-10  0.0000000000000000e+00 6.1567411352861457e-10 -4.2438138789675327e-10  0.0000000000000000e+00 5.5778378018304090e-10 -4.4024077443035784e-10  0.0000000000000000e+00 7.2254825301188188e-10 -3.8586228205689096e-10  0.0000000000000000e+00 8.2888738997154413e-10 -3.1575754791902761e-10  0.0000000000000000e+00 8.4443892572986984e-10 -2.2331743084763349e-10  0.0000000000000000e+00 8.1246281610355389e-10 -3.3176597470612097e-10  0.0000000000000000e+00 8.4615339750116064e-10 -2.7363938763297234e-10  0.0000000000000000e+00 8.5434535276352804e-10 -2.8679341324158071e-10  0.0000000000000000e+00 8.4239793632653053e-10 -2.1704924845277504e-10  0.0000000000000000e+00 8.4659958007614884e-10 -3.1034046686735345e-10  0.0000000000000000e+00 8.4489891631668963e-10 -2.3874846555261002e-10  0.0000000000000000e+00 5.7574138470706969e-10 -4.3354247318828498e-10  0.0000000000000000e+00 5.5601243760611133e-10 -4.4165326724553691e-10  0.0000000000000000e+00 5.5798673591677119e-10 -4.3771915506733547e-10  0.0000000000000000e+00 5.9470613018742479e-10 -4.2905198621874091e-10  0.0000000000000000e+00 8.4378712497506294e-10 -2.3100167270703212e-10  0.0000000000000000e+00 7.9073915920763602e-10 -3.5687816284279098e-10  0.0000000000000000e+00 8.4596978080391893e-10 -3.0652794620613922e-10  0.0000000000000000e+00 8.5126067542130699e-10 -2.8774069673567636e-10  0.0000000000000000e+00 5.5281426421202625e-10 -4.4098723844926419e-10  0.0000000000000000e+00 7.8612945596264085e-10 -3.5631638163430356e-10  0.0000000000000000e+00 8.4245992218775009e-10 -1.9774783328092325e-10  0.0000000000000000e+00 7.9594907495472969e-10 -3.4485624852661502e-10  0.0000000000000000e+00 8.4817924337660388e-10 -2.8344285110227285e-10  0.0000000000000000e+00 5.6783360173099341e-10 -4.3415052272348590e-10  0.0000000000000000e+00 7.3499116483357496e-10 -3.8097711211228144e-10  0.0000000000000000e+00 5.5629096091213039e-10 -4.3936984368630095e-10  0.0000000000000000e+00 6.0892458159684078e-10 -4.2616318607494822e-10  0.0000000000000000e+00 6.5361002706139580e-10 -4.1214967663271506e-10  0.0000000000000000e+00 8.3967466476808260e-10 -3.0916743740596491e-10  0.0000000000000000e+00 7.8794482642528726e-10 -3.5218745080622592e-10  0.0000000000000000e+00 6.0205068744544756e-10 -4.2777936067746779e-10  0.0000000000000000e+00 8.4258624335664535e-10 -2.5457759545678258e-10  0.0000000000000000e+00 6.3646297288801776e-10 -4.1827631414700934e-10  0.0000000000000000e+00 5.8766849600974528e-10 -4.3022760897447924e-10  0.0000000000000000e+00 7.4250794367470601e-10 -3.8221564531023511e-10  0.0000000000000000e+00 8.4378168871130600e-10 -2.4330188852173924e-10  0.0000000000000000e+00 8.4458518787283635e-10 -2.6341334598767974e-10  0.0000000000000000e+00 8.4683933282896830e-10 -1.9849334686309021e-10  0.0000000000000000e+00 8.4249139573867897e-10 -2.4889187164227158e-10  0.0000000000000000e+00 7.4159840211090062e-10 -3.8006779277908133e-10  0.0000000000000000e+00 8.4582719650209990e-10 -1.9648998911234521e-10  0.0000000000000000e+00 8.4375601655581901e-10 -1.9552838929220811e-10  0.0000000000000000e+00 8.5877417367357847e-10 -2.8026006389559456e-10  0.0000000000000000e+00 8.4191749020809301e-10 -2.2073676484871995e-10  0.0000000000000000e+00 6.8643021791443689e-10 -4.0016785164442489e-10  0.0000000000000000e+00 6.9679757568120719e-10 -3.9589467453053825e-10  0.0000000000000000e+00 8.1452203869137854e-10 -3.2608633715568093e-10  0.0000000000000000e+00 5.5883446452380759e-10 -4.4242783702884539e-10  0.0000000000000000e+00 8.5413110838588908e-10 -2.9161394594376452e-10  0.0000000000000000e+00 8.4238898884047732e-10 -2.1345492185823273e-10  0.0000000000000000e+00 8.4417512997164993e-10 -2.2710104426810852e-10  0.0000000000000000e+00 8.4264209838540315e-10 -2.3484324724886619e-10  0.0000000000000000e+00 6.1785095014186177e-10 -4.2193540722001017e-10  0.0000000000000000e+00 8.5045364709893834e-10 -3.1103812857028075e-10  0.0000000000000000e+00 8.5758006612904976e-10 -2.9076852946494839e-10  0.0000000000000000e+00 8.4074798189509613e-10 -2.0397355531814443e-10  0.0000000000000000e+00 6.2477619334639791e-10 -4.1955116911541528e-10  0.0000000000000000e+00 7.4214971882293911e-10 -3.8496865100090803e-10  0.0000000000000000e+00 7.9771735128223830e-10 -3.5505094812274102e-10  0.0000000000000000e+00 7.8955579026162355e-10 -3.4824086165583793e-10  0.0000000000000000e+00 7.9776887990186929e-10 -3.4025495505658710e-10  0.0000000000000000e+00 7.1502262942811918e-10 -3.8851989098493429e-10  0.0000000000000000e+00 7.2763904783184752e-10 -3.8214777660290716e-10  0.0000000000000000e+00 7.4768333765808267e-10 -3.7907080407892858e-10  0.0000000000000000e+00 7.4925851738272235e-10 -3.8077494561572897e-10  0.0000000000000000e+00 7.5409509006836592e-10 -3.7765545400121874e-10  0.0000000000000000e+00 7.4715884106693016e-10 -3.7682032391247825e-10  0.0000000000000000e+00 6.4711790546963480e-10 -4.1311179025923669e-10  0.0000000000000000e+00 7.5172212273551544e-10 -3.7644787102962097e-10  0.0000000000000000e+00 8.0539948156451027e-10 -3.3590460108581943e-10  0.0000000000000000e+00 8.4165522251387154e-10 -2.5974230358923375e-10  0.0000000000000000e+00 8.4511882980014234e-10 -2.7909925658934389e-10  0.0000000000000000e+00 5.7990497134301401e-10 -4.3116486724457129e-10  0.0000000000000000e+00 7.8354535879346718e-10 -3.6091697089549924e-10  0.0000000000000000e+00 5.6029798136127647e-10 -4.3564032219849887e-10  0.0000000000000000e+00 8.4723941263235105e-10 -1.8143244648742540e-10  0.0000000000000000e+00 8.4924421852235768e-10 -1.9295172502864741e-10  0.0000000000000000e+00 8.4601761062922931e-10 -1.8646765282129705e-10  0.0000000000000000e+00 7.5866008828040838e-10 -3.7920649541287529e-10  0.0000000000000000e+00 7.7301111950146996e-10 -3.6966981149862520e-10  0.0000000000000000e+00 7.8535076781853251e-10 -3.6508151857165967e-10  0.0000000000000000e+00 5.4740578931154227e-10 -4.4576164767383285e-10  0.0000000000000000e+00 5.2123761779649383e-10 -4.5010922764990418e-10  0.0000000000000000e+00 5.3247696997852800e-10 -4.4689937653664198e-10  0.0000000000000000e+00 4.9511286962030841e-10 -4.5376415975004191e-10  0.0000000000000000e+00 5.0954607923549690e-10 -4.5037436735610855e-10  0.0000000000000000e+00 8.4553142659472617e-10 -1.9049492915459148e-10  0.0000000000000000e+00 8.4592770023834453e-10 -1.9387177969076139e-10  0.0000000000000000e+00 8.4756185019561280e-10 -1.9630956177562293e-10  0.0000000000000000e+00 8.4395562646994141e-10 -1.8746328930084703e-10  0.0000000000000000e+00 8.4339335154964208e-10 -1.9253184475568637e-10  0.0000000000000000e+00 8.4361559422934369e-10 -1.8505009757600546e-10  0.0000000000