<?xml version="1.0"?>
<VTKFile type="UnstructuredGrid"  version="0.1"  >
<UnstructuredGrid>
<Piece  NumberOfPoints="10381" NumberOfCells="20287">
<Points>
<DataArray  type="Float64"  NumberOfComponents="3"  format="ascii">4.1030663791399e-23 9.999999999999972e-07 7.792863567657969e-08  4.104251851164359e-23 9.999999999999972e-07 7.782185784922752e-08  4.102570586031411e-23 9.998971199776666e-07 7.787041272742203e-08  4.101807295283632e-23 9.999999999999972e-07 7.804204386829804e-08  4.101297964887764e-23 9.998966883850874e-07 7.798460865700906e-08  4.100632950817176e-23 9.999999999999972e-07 7.814781941432872e-08  4.100056719860206e-23 9.998959274419311e-07 7.809564912672445e-08  4.09940620323202e-23 9.999999999999972e-07 7.825831501367647e-08  4.098897787265661e-23 9.998985622489619e-07 7.820267130177402e-08  4.098149454428939e-23 9.999999999999972e-07 7.837151288250154e-08  4.097632840406858e-23 9.998949945174192e-07 7.831303985427029e-08  4.09696340823631e-23 9.999999999999972e-07 7.84783424263249e-08  4.09641708074395e-23 9.99896807583321e-07 7.842435881546902e-08  4.095798190658886e-23 9.999999999999972e-07 7.858329589527483e-08  4.095201735866943e-23 9.998942901159937e-07 7.853130988284607e-08  4.094618351930334e-23 9.999999999999972e-07 7.868956632044003e-08  4.094041444545889e-23 9.998945965684769e-07 7.863612608655197e-08  4.093433307498163e-23 9.999999999999972e-07 7.879630563370293e-08  4.092861134746824e-23 9.998940855879984e-07 7.874192796149852e-08  4.092268089920738e-23 9.999999999999972e-07 7.890125910265286e-08  4.091602955555987e-23 9.998911792782595e-07 7.885234835845994e-08  4.091087249431729e-23 9.999999999999972e-07 7.900761975837853e-08  4.090464447275328e-23 9.998941567042928e-07 7.895787349386398e-08  4.089801143692074e-23 9.999999999999972e-07 7.912346186497589e-08  4.089268268541987e-23 9.99895212985851e-07 7.906667197737706e-08  4.088554679564634e-23 9.999999999999972e-07 7.923573337257334e-08  4.087954568246275e-23 9.998931136873578e-07 7.918290028212871e-08  4.087367255481885e-23 9.999999999999972e-07 7.934268702570532e-08  4.086776212829414e-23 9.998929927091906e-07 7.928891612428725e-08  4.086106974004979e-23 9.999999999999972e-07 7.945620308950084e-08  4.085537864543617e-23 9.998911710249765e-07 7.939863493764251e-08  4.084883759093648e-23 9.999999999999972e-07 7.956638049387814e-08  4.084357067161895e-23 9.998955228286238e-07 7.950934351425628e-08  4.083683060288736e-23 9.999999999999972e-07 7.967452982768584e-08  4.083165059013727e-23 9.998944804633205e-07 7.961566769799125e-08  4.082511126934015e-23 9.999999999999972e-07 7.978008820007833e-08  4.081884550029551e-23 9.998938012331319e-07 7.973032646348223e-08  4.081317159636978e-23 9.999999999999972e-07 7.988763121355893e-08  4.08068006315587e-23 9.998938730067422e-07 7.983888876980224e-08  4.080040102481433e-23 9.999999999999972e-07 8.000265829615571e-08  4.079540331770567e-23 9.998951116323047e-07 7.994278527220779e-08  4.078683595852034e-23 9.999999999999972e-07 8.012484155116946e-08  4.078194953170691e-23 9.998920003920189e-07 8.006085496314339e-08  4.077518378274609e-23 9.999999999999972e-07 8.022979502011942e-08  4.076884940753025e-23 9.998907979899197e-07 8.017764798976534e-08  4.076353160697184e-23 9.999999999999972e-07 8.033474848906937e-08  4.075700442008041e-23 9.998907662463965e-07 8.028430640837273e-08  4.075184663215026e-23 9.999999999999972e-07 8.043999738557396e-08  4.074616617691683e-23 9.998949548320778e-07 8.038611720979971e-08  4.073988277536462e-23 9.999999999999972e-07 8.054775822749744e-08  4.073405826287652e-23 9.998942811716886e-07 8.049450194373086e-08  4.072823059959036e-23 9.999999999999972e-07 8.06527116964474e-08  4.072171484490231e-23 9.998923023234548e-07 8.060370272067525e-08  4.071653560716421e-23 9.999999999999972e-07 8.075805082351248e-08  4.071045512145362e-23 9.99894293822677e-07 8.070711279255313e-08  4.070439235453762e-23 9.999999999999972e-07 8.086742751952081e-08  4.069877415655103e-23 9.998955466731232e-07 8.081357842136463e-08  4.069170064328183e-23 9.999999999999972e-07 8.09817442916853e-08  4.068641558894424e-23 9.998957056636689e-07 8.092505349284776e-08  4.067944221062225e-23 9.999999999999972e-07 8.109215843720101e-08  4.067428819204027e-23 9.998965725053369e-07 8.103515421487124e-08  4.066699834608413e-23 9.999999999999972e-07 8.120424280459483e-08  4.066165813444065e-23 9.998920546338537e-07 8.114439778878674e-08  4.065521366093099e-23 9.999999999999972e-07 8.131038981192355e-08  4.064867940504563e-23 9.998921251794205e-07 8.126137033608775e-08  4.064284045154345e-23 9.999999999999972e-07 8.142183777429778e-08  4.06375332521704e-23 9.998946432421975e-07 8.136428401873578e-08  4.063055613144389e-23 9.999999999999972e-07 8.153248509314352e-08  4.062546501478935e-23 9.998951042191827e-07 8.147344601446554e-08  4.061872667858015e-23 9.999999999999972e-07 8.163903533216178e-08  4.061366521144374e-23 9.998972241056168e-07 8.15818490808004e-08  4.060690729983667e-23 9.999999999999972e-07 8.174549483157161e-08  4.060149892498071e-23 9.998962517077913e-07 8.169046084933768e-08  4.059506767206257e-23 9.999999999999972e-07 8.185213671803489e-08  4.058867521359565e-23 9.998929403253023e-07 8.180265519047916e-08  4.058255359922289e-23 9.999999999999972e-07 8.196485346559018e-08  4.057706907047637e-23 9.998963277795014e-07 8.191058148833271e-08  4.057046508519643e-23 9.999999999999972e-07 8.207373712012029e-08  4.056482673151468e-23 9.998973225551928e-07 8.202184545039608e-08  4.055881290942217e-23 9.999999999999972e-07 8.217869058907023e-08  4.055312316660336e-23 9.998962721109075e-07 8.212621134725779e-08  4.054692867124326e-23 9.999999999999972e-07 8.22857342903385e-08  4.054145805328846e-23 9.998965051496069e-07 8.223151438591359e-08  4.053492168319415e-23 9.999999999999972e-07 8.23938836241462e-08  4.052939781855432e-23 9.998970080987735e-07 8.234064627238962e-08  4.052291469514503e-23 9.999999999999972e-07 8.25020329579539e-08  4.051698063047124e-23 9.998955692626972e-07 8.245105152356116e-08  4.051023326882401e-23 9.999999999999972e-07 8.261625709166163e-08  4.050539263000308e-23 9.998952267049353e-07 8.255508439498012e-08  4.049837738311599e-23 9.999999999999972e-07 8.272304541657522e-08  4.049289100178064e-23 9.998961894337433e-07 8.266865178019633e-08  4.048672520734173e-23 9.999999999999972e-07 8.282799888552517e-08  4.048129094908083e-23 9.998963519977135e-07 8.277329833019915e-08  4.047401337266011e-23 9.999999999999972e-07 8.294249691339592e-08  4.046955391488171e-23 9.998958242965198e-07 8.287848843469669e-08  4.046227964853447e-23 9.999999999999972e-07 8.304818490459571e-08  4.045641019319852e-23 9.998932541035284e-07 8.299430636185461e-08  4.045029570002399e-23 9.999999999999972e-07 8.315612671668809e-08  4.044482124117367e-23 9.998955466397812e-07 8.310098289814892e-08  4.043863081692724e-23 9.999999999999972e-07 8.32611946430238e-08  4.043215482966676e-23 9.99895149297924e-07 8.321467444857694e-08  4.042663669350641e-23 9.999999999999972e-07 8.336922810256117e-08  4.042092098398427e-23 9.998959251971341e-07 8.331663583424619e-08  4.041498198532002e-23 9.999999999999972e-07 8.347420438145189e-08  4.040862818303352e-23 9.998943386396115e-07 8.34257729842859e-08  4.040332980954577e-23 9.999999999999972e-07 8.357915785040183e-08  4.039737495930887e-23 9.99895277899595e-07 8.35280722726155e-08  4.039034189928916e-23 9.999999999999972e-07 8.36961425459858e-08  4.038526176305936e-23 9.998955324685156e-07 8.363743281376725e-08  4.037705115455894e-23 9.999999999999972e-07 8.381585493201481e-08  4.037238783441592e-23 9.998970597428923e-07 8.375491812862674e-08  4.036531172928689e-23 9.999999999999972e-07 8.392159427457622e-08  4.035918228843448e-23 9.998950998607194e-07 8.387190323037629e-08  4.035305455846802e-23 9.999999999999972e-07 8.403199705444121e-08  4.034760383881054e-23 9.998949316884551e-07 8.397602446093589e-08  4.03406089399187e-23 9.999999999999972e-07 8.41440972205635e-08  4.03354016006036e-23 9.99896096566077e-07 8.408709732944137e-08  4.032882474693606e-23 9.999999999999972e-07 8.425023979481445e-08  4.03235156959192e-23 9.998972345481479e-07 8.419529402332755e-08  4.031696010831147e-23 9.999999999999972e-07 8.43571069589916e-08  4.031144544255094e-23 9.998981989007331e-07 8.430497755305596e-08  4.030516574041848e-23 9.999999999999972e-07 8.446334118068755e-08  4.029878196837402e-23 9.998955128637661e-07 8.441635395125759e-08  4.029331127670425e-23 9.999999999999972e-07 8.457011669741967e-08  4.028696074622158e-23 9.998933728430822e-07 8.452069003393542e-08  4.028072544806718e-23 9.999999999999972e-07 8.468347976373977e-08  4.027530455789317e-23 9.998953367656587e-07 8.462764356733667e-08  4.026796580092003e-23 9.999999999999972e-07 8.479840844801432e-08  4.026303403560523e-23 9.998960576486677e-07 8.473888748955289e-08  4.02553989746028e-23 9.999999999999972e-07 8.491160035665338e-08  4.02500341123569e-23 9.998953800444774e-07 8.485530278435658e-08  4.024338379011019e-23 9.999999999999972e-07 8.501982351746076e-08  4.023733227424632e-23 9.998931247739058e-07 8.496745550054847e-08  4.023083069360232e-23 9.999999999999972e-07 8.513289175897113e-08  4.022591421807489e-23 9.998958333344035e-07 8.507300876808409e-08  4.021893823130293e-23 9.999999999999972e-07 8.52400095365313e-08  4.021318929689361e-23 9.998929690801102e-07 8.518476041437148e-08  4.020699882426747e-23 9.999999999999972e-07 8.534755015468311e-08  4.020141408891328e-23 9.998958559441525e-07 8.529370892295859e-08  4.019422893452352e-23 9.999999999999972e-07 8.54625710960679e-08  4.018869933727793e-23 9.998971765342856e-07 8.540955381454585e-08  4.018216386038509e-23 9.999999999999972e-07 8.557124362285594e-08  4.017638372451043e-23 9.998962952312419e-07 8.551960168964318e-08  4.016935815357094e-23 9.999999999999972e-07 8.568658717572881e-08  4.016424275471094e-23 9.998972682656653e-07 8.562993085819645e-08  4.015762717544473e-23 9.999999999999972e-07 8.579225043316467e-08  4.015213005645381e-23 9.99897
[...]
<PointData  Tensors="f_58"> 
<DataArray  type="Float64"  Name="f_58"  NumberOfComponents="9" format="ascii">-1.0202194535258408e-66 -1.7950658381741399e-19 -2.0370138489359433e-19 -1.7950658381741399e-19 -5.3770040065167720e-04 -4.5227590369610023e-06 -2.0370138489359433e-19 -4.5227590369610023e-06 9.6450967102291551e-04  1.3106902011023262e-67 -1.7852098477813074e-19 -2.0340128454554252e-19 -1.7852098477813074e-19 -5.4873510939639110e-04 -5.2349645124681075e-06 -2.0340128454554252e-19 -5.2349645124681075e-06 9.8646881541655513e-04  -4.8847948757405260e-67 -1.7905146616138867e-19 -2.0602611624117056e-19 -1.7905146616138867e-19 -5.5576282372077194e-04 -1.9782133193510483e-05 -2.0602611624117056e-19 -1.9782133193510483e-05 1.0021306535237490e-03  -3.0875355085738666e-66 -1.8032510642624175e-19 -2.0409943877475793e-19 -1.8032510642624175e-19 -5.2488821344481927e-04 -5.1233991479408998e-06 -2.0409943877475793e-19 -5.1233991479408998e-06 9.4292171237297007e-04  4.5008636320986250e-66 -1.7992226164167969e-19 -2.0631781186474641e-19 -1.7992226164167969e-19 -5.4331112297623032e-04 -1.9746125079356002e-05 -2.0631781186474641e-19 -1.9746125079356002e-05 9.7931883341260875e-04  -4.8319276312166908e-66 -1.8113477337678097e-19 -2.0428277966808874e-19 -1.8113477337678097e-19 -5.1288372957107120e-04 -4.7049517735025033e-06 -2.0428277966808874e-19 -4.7049517735025033e-06 9.2047123605630142e-04  6.9589542637672004e-66 -1.8080409775758920e-19 -2.0666773149236581e-19 -1.8080409775758920e-19 -5.3124601730149908e-04 -1.9669478615692991e-05 -2.0666773149236581e-19 -1.9669478615692991e-05 9.5782486507213233e-04  -7.1142751379723244e-66 -1.8204996379455064e-19 -2.0475792171488848e-19 -1.8204996379455064e-19 -5.0119917088197071e-04 -5.0232654992782666e-06 -2.0475792171488848e-19 -5.0232654992782666e-06 9.0022284319648052e-04  1.0684464464955295e-65 -1.8165080451898293e-19 -2.0699720805479287e-19 -1.8165080451898293e-19 -5.1954400368276854e-04 -1.9754569801311709e-05 -2.0699720805479287e-19 -1.9754569801311709e-05 9.3663507815584563e-04  -1.0449548966815200e-65 -1.8291312008293303e-19 -2.0503419452240004e-19 -1.8291312008293303e-19 -4.8932047747543615e-04 -4.9398117619482351e-06 -2.0503419452240004e-19 -4.9398117619482351e-06 8.7793870436281068e-04  1.5277407465319087e-65 -1.8256779792581872e-19 -2.0742048973030071e-19 -1.8256779792581872e-19 -5.0781291722861604e-04 -2.0065870600640382e-05 -2.0742048973030071e-19 -2.0065870600640382e-05 9.1538747022677758e-04  -1.2650962838032841e-65 -1.8382868453572553e-19 -2.0544349474750754e-19 -1.8382868453572553e-19 -4.7769973249121053e-04 -4.9902252530562584e-06 -2.0544349474750754e-19 -4.9902252530562584e-06 8.5709708684586852e-04  2.1009414758792750e-65 -1.8340544686840931e-19 -2.0777707378792903e-19 -1.8340544686840931e-19 -4.9602578401451182e-04 -2.0434018881979735e-05 -2.0777707378792903e-19 -2.0434018881979735e-05 8.9419794590327216e-04  -1.2140616140322659e-65 -1.8463566282595087e-19 -2.0572408055233120e-19 -1.8463566282595087e-19 -4.6611156044000556e-04 -5.0774685513013142e-06 -2.0572408055233120e-19 -5.0774685513013142e-06 8.3585178419402068e-04  2.1529543867686241e-65 -1.8428158010920150e-19 -2.0811114103784677e-19 -1.8428158010920150e-19 -4.8412148928794502e-04 -2.0294103033681822e-05 -2.0811114103784677e-19 -2.0294103033681822e-05 8.7280849009524855e-04  -1.0187257796998453e-65 -1.8547636347403914e-19 -2.0606683405312997e-19 -1.8547636347403914e-19 -4.5439856306484920e-04 -5.2071555480022590e-06 -2.0606683405312997e-19 -5.2071555480022590e-06 8.1490919447738651e-04  1.8672731132363027e-65 -1.8511851638206404e-19 -2.0849522800159493e-19 -1.8511851638206404e-19 -4.7282815105168310e-04 -2.0587534203478848e-05 -2.0849522800159493e-19 -2.0587534203478848e-05 8.5277048159980006e-04  -6.1246775056377940e-66 -1.8643104262164810e-19 -2.0653876420397516e-19 -1.8643104262164810e-19 -4.4340954374269629e-04 -5.3056150318090330e-06 -2.0653876420397516e-19 -5.3056150318090330e-06 7.9502682338153613e-04  1.4191370026796981e-65 -1.8600871888853372e-19 -2.0885003036278083e-19 -1.8600871888853372e-19 -4.6186714654932652e-04 -2.0573433290505784e-05 -2.0885003036278083e-19 -2.0573433290505784e-05 8.3219276734348101e-04  1.3226403394891019e-67 -1.8722618924221424e-19 -2.0676729505673417e-19 -1.8722618924221424e-19 -4.3091709686400044e-04 -5.1864428159599831e-06 -2.0676729505673417e-19 -5.1864428159599831e-06 7.7256547869162032e-04  3.7087840050247133e-66 -1.8688887644990794e-19 -2.0920573495065926e-19 -1.8688887644990794e-19 -4.4930542087217245e-04 -2.0506642011101189e-05 -2.0920573495065926e-19 -2.0506642011101189e-05 8.1031691936202450e-04  2.6502221095287886e-66 -1.8808796234813545e-19 -2.0711650236246103e-19 -1.8808796234813545e-19 -4.1842988436192923e-04 -5.1817242240548323e-06 -2.0711650236246103e-19 -5.1817242240548323e-06 7.5085413878561843e-04  -5.6119026550726677e-66 -1.8778508061915438e-19 -2.0957279782883880e-19 -1.8778508061915438e-19 -4.3792215309136341e-04 -2.0347825764011725e-05 -2.0957279782883880e-19 -2.0347825764011725e-05 7.8971912199004147e-04  -2.1377191847135225e-66 -1.8916081834059565e-19 -2.0770433586397924e-19 -1.8916081834059565e-19 -4.0678844039183264e-04 -5.5612028795832823e-06 -2.0770433586397924e-19 -5.5612028795832823e-06 7.2971634906711131e-04  -5.8276033510157240e-67 -1.8877814875238979e-19 -2.0997027401453153e-19 -1.8877814875238979e-19 -4.2639130090545808e-04 -1.9981274370949775e-05 -2.0997027401453153e-19 -1.9981274370949775e-05 7.6819214189904526e-04  -7.8749221906451436e-66 -1.9011236000023502e-19 -2.0810131893452981e-19 -1.9011236000023502e-19 -3.9440322538287635e-04 -5.7884810180620122e-06 -2.0810131893452981e-19 -5.7884810180620122e-06 7.0688653835882995e-04  1.3685668026006135e-65 -1.8973183780962585e-19 -2.1040525859053783e-19 -1.8973183780962585e-19 -4.1321289228100433e-04 -2.0003552037401751e-05 -2.1040525859053783e-19 -2.0003552037401751e-05 7.4562502870707467e-04  -3.4209611885323370e-66 -1.9107374204301379e-19 -2.0851486414997632e-19 -1.9107374204301379e-19 -3.8302271945084396e-04 -5.4080622256323614e-06 -2.0851486414997632e-19 -5.4080622256323614e-06 6.8639791908651257e-04  1.5772723837236518e-65 -1.9063541681845036e-19 -2.1080756415954522e-19 -1.9063541681845036e-19 -4.0151859669651161e-04 -2.0112790610988610e-05 -2.1080756415954522e-19 -2.0112790610988610e-05 7.2468211646841666e-04  1.2825549703164319e-65 -1.9199147024142204e-19 -2.0879615498655521e-19 -1.9199147024142204e-19 -3.6992478940249790e-04 -4.8580927373000575e-06 -2.0879615498655521e-19 -4.8580927373000575e-06 6.6293489175289755e-04  -1.0345229007088787e-65 -1.9161639399303511e-19 -2.1127994100173965e-19 -1.9161639399303511e-19 -3.8987699538119478e-04 -2.0338014132437327e-05 -2.1127994100173965e-19 -2.0338014132437327e-05 7.0342793904059817e-04  2.0860681588781650e-65 -1.9300724958932332e-19 -2.0926581701338466e-19 -1.9300724958932332e-19 -3.5807135157378420e-04 -4.7563751954063723e-06 -2.0926581701338466e-19 -4.7563751954063723e-06 6.4144691395176371e-04  -4.2883934206103155e-65 -1.9262434754184449e-19 -2.1176951590559351e-19 -1.9262434754184449e-19 -3.7804266120482270e-04 -2.0403271208959646e-05 -2.1176951590559351e-19 -2.0403271208959646e-05 6.8212481122373878e-04  7.4845502054249938e-66 -1.9410447682183038e-19 -2.0983936258040372e-19 -1.9410447682183038e-19 -3.4811154935731351e-04 -4.7786885981115280e-06 -2.0983936258040372e-19 -4.7786885981115280e-06 6.2200867471676787e-04  -3.1532845218326032e-65 -1.9367536885034575e-19 -2.1227914478044819e-19 -1.9367536885034575e-19 -3.6678632743500757e-04 -2.0335140179926929e-05 -2.1227914478044819e-19 -2.0335140179926929e-05 6.6125188046179447e-04  -3.4320841576559821e-65 -1.9508373002714249e-19 -2.1036371086797255e-19 -1.9508373002714249e-19 -3.3530077666356014e-04 -5.2437636819737952e-06 -2.1036371086797255e-19 -5.2437636819737952e-06 6.0007291338306601e-04  1.9655164148840808e-65 -1.9467173696697191e-19 -2.1269028638417396e-19 -1.9467173696697191e-19 -3.5463812273346635e-04 -1.9974150289084812e-05 -2.1269028638417396e-19 -1.9974150289084812e-05 6.3928315191879486e-04  -1.3248530455310069e-64 -1.9593761707028150e-19 -2.1072020348821522e-19 -1.9593761707028150e-19 -3.2216332233027633e-04 -5.5003754558717675e-06 -2.1072020348821522e-19 -5.5003754558717675e-06 5.7746197415252398e-04  1.4763246660470680e-64 -1.9564387026481708e-19 -2.1310226412130730e-19 -1.9564387026481708e-19 -3.4227784542875043e-04 -1.9614612517753466e-05 -2.1310226412130730e-19 -1.9614612517753466e-05 6.1755108465920460e-04  -1.8640163842439985e-64 -1.9710702286077038e-19 -2.1132036897562672e-19 -1.9710702286077038e-19 -3.1104689561332861e-04 -5.1563083434195510e-06 -2.1132036897562672e-19 -5.1563083434195510e-06 5.5677915999312300e-04  3.5987317989860372e-64 -1.9669169385679967e-19 -2.1367427576448400e-19 -1.9669169385679967e-19 -3.3113272029823397e-04 -1.9842686994504549e-05 -2.1367427576448400e-19 -1.9842686994504549e-05 5.9737834451490030e-04  3.4057572563386232e-65 -1.9828454646401478e-19 -2.1196981089096547e-19 -1.9828454646401478e-19 -2.9933226533004469e-04 -5.4923789750212374e-06 -2.1196981089096547e-19 -5.4923789750212374e-06 5.3487931447537081e-04  2.0663341557452850e-64 -1.9781187912402282e-19 -2.1430327071333932e-19 -1.9781187912402282e-19 -3.1860786185191215e-04 -2.0244483647382731e-05 -2.1430327071333932e-19 -2.0244483647382731e-05 5.7520139462197335e-04  5.2301264167165327e-64 -1.9930506281488250e-19 -2.1241379589414131e-19 -1.9930506281488250e-19 -2.8763949520614439e-04 -5.2199413413791613e-06 -2.1241379589414131e-19 -5.2199413413791613e-06 5.1334555416881231e-04  -5.5084623098074524e-64 -1.9883369604282547e-19 -2.1479878599298630e-19 -1.9883369604282547e-19 -3.0637653283412916e-04 -2.0289355833290786e-05 -2.1479878599298630e-19 -2.0289355833290786e-05 5.5339931376928875e-04  9.4940497174128255e-64 -2.0018132878300689e-19 -2.1274804692687762e-19 -2.0018132878300689e-19 -2.7511270002899846e-04 -5.0365532757422145e-06 -2.1274804692687762e-19 -5.0365532757422145e-06 4.9142146207770219e-04  -1.4902663838461192e-63 -1.9983854303701612e-19 -2.1524976949186639e-19 -1.9983854303701612e-19 -2.9483256623704404e-04 -1.9953341540233676e-05 -2.1524976949186639e-19 -1.9953341540233676e-05 5.3254985803456853e-04  1.1735837423608085e-63 -2.0122220140579659e-19 -2.1329949377735331e-19 -2.0122220140579659e-19 -2.6447248318681285e-04 -5.1958857430558095e-06 -2.1329949377735331e-19 -5.1958857430558095e-06 4.7164586939766402e-04  -2.0131337885923294e-63 -2.0082535574276571e-19 -2.1569383718104446e-19 -2.0082535574276571e-19 -2.8333965743462347e-04 -1.9745917526427277e-05 -2.1569383718104446e-19 -1.9745917526427277e-05 5.1169457224180758e-04  1.1296271681457185e-63 -2.0234150072960118e-19 -2.1393702371102027e-19 -2.0234150072960118e-19 -2.5290778292523302e-04 -5.2693565385685196e-06 -2.1393702371102027e-19 -5.2693565385685196e-06 4.5125544176122018e-04  -2.1352379487873656e-63 -2.0190897364850564e-19 -2.1624510491101032e-19 -2.0190897364850564e-19 -2.7217528738657481e-04 -1.9538095021109713e-05 -2.1624510491101032e-19 -1.9538095021109713e-05 4.9135587899085196e-04  7.7929130697248391e-64 -2.0335433031308372e-19 -2.1441024383598025e-19 -2.0335433031308372e-19 -2.4122044863737931e-04 -4.9849765544574605e-06 -2.1441024383598025e-19 -4.9849765544574605e-06 4.3041612761713581e-04  -1.6850616819308931e-63 -2.0301189696137928e-19 -2.1685045843161191e-19 -2.0301189696137928e-19 -2.6052085708174084e-04 -1.9555082693142456e-05 -2.1685045843161191e-19 -1.9555082693142456e-05 4.7070405281806590e-04  1.2597208069666981e-64 -2.0438321873061554e-19 -2.1493423959667836e-19 -2.0438321873061554e-19 -2.2985056239542816e-04 -4.9191181050549707e-06 -2.1493423959667836e-19 -4.9191181050549707e-06 4.1008262074700071e-04  -7.5958914402976296e-64 -2.0404256801958409e-19 -2.1736583369763476e-19 -2.0404256801958409e-19 -2.4946408396122390e-04 -1.9516596628611110e-05 -2.1736583369763476e-19 -1.9516596628611110e-05 4.5044150807785165e-04  -7.0230468702277738e-64 -2.0549917121588768e-19 -2.1554431875141618e-19 -2.0549917121588768e-19 -2.1793211931594168e-04 -4.9598785800593249e-06 -2.1554431875141618e-19 -4.9598785800593249e-06 3.8896965294744592e-04  7.0454033295085319e-64 -2.0514181234451086e-19 -2.1791343142783307e-19 -2.0514181234451086e-19 -2.3835931705665204e-04 -1.9248209407903462e-05 -2.1791343142783307e-19 -1.9248209407903462e-05 4.2993593402000532e-04  -1.0965368584979556e-63 -2.0665828765135720e-19 -2.1617200938582229e-19 -2.0665828765135720e-19 -2.0585619000989093e-04 -5.1216246927328500e-06 -2.1617200938582229e-19 -5.1216246927328500e-06 3.6699691525745025e-04  1.9305728789618106e-63 -2.0627734067217549e-19 -2.1853758463016447e-19 -2.0627734067217549e-19 -2.2640834118876750e-04 -1.9277913891840769e-05 -2.1853758463016447e-19 -1.9277913891840769e-05 4.0871343388798685e-04  -7.8859800650376280e-64 -2.0782473077187035e-19 -2.1686025901985507e-19 -2.0782473077187035e-19 -1.9450703690965777e-04 -5.4779293165738273e-06 -2.1686025901985507e-19 -5.4779293165738273e-06 3.4632078488082310e-04  1.7528569882075822e-63 -2.0738495772798225e-19 -2.1914291940677110e-19 -2.0738495772798225e-19 -2.1458733221237124e-04 -1.9356766405157815e-05 -2.1914291940677110e-19 -1.9356766405157815e-05 3.8768640674261500e-04  -3.6000841843373984e-64 -2.0909033239338272e-19 -2.1752002675758986e-19 -2.0909033239338272e-19 -1.8434101334615990e-04 -4.6430096536180863e-06 -2.1752002675758986e-19 -4.6430096536180863e-06 3.2691086762890001e-04  8.5102372759998018e-64 -2.0861556077133666e-19 -2.1989386647207671e-19 -2.0861556077133666e-19 -2.0342452950466468e-04 -1.9518856102968842e-05 -2.1989386647207671e-19 -1.9518856102968842e-05 3.6755871070389139e-04  -9.2646531890133351e-65 -2.1012811472078549e-19 -2.1803409724212370e-19 -2.1012811472078549e-19 -1.7086745102034678e-04 -4.6943185585791697e-06 -2.1803409724212370e-19 -4.6943185585791697e-06 3.0390033365097866e-04  2.9774627581610309e-64 -2.0976242049702306e-19 -2.2057229076454633e-19 -2.0976242049702306e-19 -1.9162341028529950e-04 -1.9866978615836037e-05 -2.2057229076454633e-19 -1.9866978615836037e-05 3.4662276388864531e-04  2.1261404236344619e-66 -2.1124089010694218e-19 -2.1867232040437219e-19 -2.1124089010694218e-19 -1.5984265411013817e-04 -4.7646965845014933e-06 -2.1867232040437219e-19 -4.7646965845014933e-06 2.8418600781490169e-04  9.8741396449792602e-66 -2.1083614460941192e-19 -2.2105052280924696e-19 -2.1083614460941192e-19 -1.7985710892756273e-04 -1.9302772921984553e-05 -2.2105052280924696e-19 -1.9302772921984553e-05 3.2525744250176566e-04  3.7133161091877149e-64 -2.1242159122684457e-19 -2.1926167745417250e-19 -2.1242159122684457e-19 -1.4837409469803958e-04 -4.4362318768052759e-06 -2.1926167745417250e-19 -4.4362318768052759e-06 2.6272167008395251e-04  -1.8044743127960385e-64 -2.1200255382978431e-19 -2.2170840121891548e-19 -2.1200255382978431e-19 -1.6870238805271947e-04 -1.9278905099413736e-05 -2.2170840121891548e-19 -1.9278905099413736e-05 3.0498958059400276e-04  7.5091230766443316e-64 -2.1359338726931478e-19 -2.1993066860631142e-19 -2.1359338726931478e-19 -1.3738555929629329e-04 -4.5857381462693184e-06 -2.1993066860631142e-19 -4.5857381462693184e-06 2.4237639447514397e-04  -1.2707923700509018e-63 -2.1316283664219794e-19 -2.2233742345492519e-19 -2.1316283664219794e-19 -1.5745658145977173e-04 -1.9111009901402432e-05 -2.2233742345492519e-19 -1.9111009901402432e-05 2.8450922466143606e-04  1.7518944702970466e-64 -2.1486593597196037e-19 -2.2077224315579847e-19 -2.1486593597196037e-19 -1.2720028742337902e-04 -4.6707253471662300e-06 -2.2077224315579847e-19 -4.6707253471662300e-06 2.2425740805695628e-04  -9.4951918277880178e-64 -2.1441320636210023e-19 -2.2305611954058587e-19 -2.1441320636210023e-19 -1.4644714613113585e-04 -1.8867785931021046e-05 -2.2305611954058587e-19 -1.8867785931021046e-05 2.6440845654944690e-04  9.6819193525576474e-64 -2.1591790257756185e-19 -2.2132633097873572e-19 -2.1591790257756185e-19 -1.1438981550204537e-04 -4.7245473408953549e-06 -2.2132633097873572e-19 -4.7245473408953549e-06 2.0237030534828095e-04  1.1270456671368224e-64 -2.1563903995496024e-19 -2.2378760646229873e-19 -2.1563903995496024e-19 -1.3540290753396599e-04 -1.8934332316570463e-05 -2.2378760646229873e-19 -1.8934332316570463e-05 2.4432576724578014e-04  2.0459899436894048e-63 -2.1714236548343164e-19 -2.2207221459195595e-19 -2.1714236548343164e-19 -1.0286222407275620e-04 -4.8277698827515414e-06 -2.2207221459195595e-19 -4.8277698827515414e-06 1.8201495074015079e-04  -3.8748087038863052e-63 -2.1682134313912545e-19 -2.2443111379617406e-19 -2.1682134313912545e-19 -1.2413895184673943e-04 -1.8761268345685301e-05 -2.2443111379617406e-19 -1.8761268345685301e-05 2.2370185633588808e-04  3.5752834472978317e-63 -2.1837578306599946e-19 -2.2281401035388165e-19 -2.1837578306599946e-19 -9.1694424260420246e-05 -5.0318476490162607e-06 -2.2281401035388165e-19 -5.0318476490162607e-06 1.6158272400245501e-04  -7.5766848277804387e-63 -2.1803971825052907e-19 -2.2512236468270746e-19 -2.1803971825052907e-19 -1.1249943383655687e-04 -1.8604957158298492e-05 -2.2512236468270746e-19 -1.8604957158298492e-05 2.0287913485021974e-04  4.8670760191790966e-63 -2.1956075082440743e-19 -2.2345231347368372e-19 -2.1956075082440743e-19 -8.1360561756814548e-05 -4.5903872517061118e-06 -2.2345231347368372e-19 -4.5903872517061118e-06 1.4228394764251461e-04  -1.1382557927983635e-62 -2.1921403815529056e-19 -2.2582603571149143e-19 -2.1921403815529056e-19 -1.0138607457375775e-04 -1.8589311641316781e-05 -2.2582603571149143e-19 -1.8589311641316781e-05 1.8331861021344097e-04  1.1243272768056327e-63 -2.2076274368053938e-19 -2.2415517599078907e-19 -2.2076274368053938e-19 -7.0430669964941951e-05 -4.5790805599568290e-06 -2.2415517599078907e-19 -4.5790805599568290e-06 1.2238513639631387e-04  -4.5769776648275666e-63 -2.2041445024714374e-19 -2.2656382132979528e-19 -2.2041445024714374e-19 -9.0777882995358812e-05 -1.8745596852204315e-05 -2.2656382132979528e-19 -1.8745596852204315e-05 1.6406391055564593e-04  7.3874418085400472e-64 -2.2210870850107972e-19 -2.2503169885214546e-19 -2.2210870850107972e-19 -5.9835273923317675e-05 -4.6043643576940915e-06 -2.2503169885214546e-19 -4.6043643576940915e-06 1.0328245823157975e-04  -2.4221441277556873e-63 -2.2170334200962204e-19 -2.2734120131288493e-19 -2.2170334200962204e-19 -8.0033685694415403e-05 -1.8442540709174396e-05 -2.2734120131288493e-19 -1.8442540709174396e-05 1.4471124850461928e-04  2.8719810540422770e-64 -2.2326672815516787e-19 -2.2574132488252871e-19 -2.2326672815516787e-19 -4.7581774386283692e-05 -4.9299680450931154e-06 -2.2574132488252871e-19 -4.9299680450931154e-06 8.2300209891418232e-05  -1.1571564824163818e-63 -2.2293943769250459e-19 -2.2808630713881674e-19 -2.2293943769250459e-19 -6.8785179134581273e-05 -1.8388487418207305e-05 -2.2808630713881674e-19 -1.8388487418207305e-05 1.2472596158128629e-04  -3.5767075872672891e-65 -2.2458696632631568e-19 -2.2653652333260974e-19 -2.2458696632631568e-19 -3.7712353615085815e-05 -4.7070789533115044e-06 -2.2653652333260974e-19 -4.7070789533115044e-06 6.3418292536827168e-05  -4.3774204680303977e-64 -2.2416340510546739e-19 -2.2881511310690619e-19 -2.2416340510546739e-19 -5.7819746495787646e-05 -1.8296457515006483e-05 -2.2881511310690619e-19 -1.8296457515006483e-05 1.0502455315374709e-04  -2.7306521143127643e-63 -2.2588210039834682e-19 -2.2729255162026026e-19 -2.2588210039834682e-19 -2.6060596629533397e-05 -4.5558275200952153e-06 -2.2729255162026026e-19 -4.5558275200952153e-06 4.2357371978761088e-05  5.6832659986437421e-63 -2.2545122447797831e-19 -2.2961823185563851e-19 -2.2545122447797831e-19 -4.7133350715261267e-05 -1.8274688866391974e-05 -2.2961823185563851e-19 -1.8274688866391974e-05 8.5650104475972722e-05  -3.9844813460984998e-63 -2.2710891506513116e-19 -2.2800332575078410e-19 -2.2710891506513116e-19 -1.5217967622845133e-05 -4.2146855450913525e-06 -2.2800332575078410e-19 -4.2146855450913525e-06 2.2900867056512401e-05  9.7202761740215315e-63 -2.2673423178359629e-19 -2.3039820741269844e