<?xml version="1.0"?>
<VTKFile type="UnstructuredGrid"  version="0.1"  >
<UnstructuredGrid>
<Piece  NumberOfPoints="10337" NumberOfCells="20334">
<Points>
<DataArray  type="Float64"  NumberOfComponents="3"  format="ascii">4.266870628863954e-23 9.368255394837965e-07 1.076858095315143e-38  4.255737654160246e-23 9.358227702692536e-07 1.074386078345417e-38  4.253982230365388e-23 9.361704645100298e-07 5.058087597440809e-10  4.244604679456538e-23 9.348200010547108e-07 1.071914061375692e-38  4.243370819008227e-23 9.353966135597705e-07 6.877487741644349e-10  4.23347170475283e-23 9.338172318401678e-07 1.069442044405967e-38  4.231344058267209e-23 9.344210140361049e-07 7.954235543334338e-10  4.222233913778863e-23 9.328050216153114e-07 1.066946753548923e-38  4.218740878250211e-23 9.33389599667248e-07 8.992027220412039e-10  4.209845029595685e-23 9.316891301314935e-07 1.064195868655007e-38  4.194529207711292e-23 9.30309603536865e-07 1.060795073035585e-38  4.189400296004868e-23 9.310007887590823e-07 1.153156519214667e-09  4.178309367274735e-23 9.288486501899432e-07 1.057193544973902e-38  4.160093429801639e-23 9.272079044056223e-07 1.05314879433435e-38  4.151305078569901e-23 9.279489705851017e-07 1.532650486128394e-09  4.137848505246354e-23 9.252042597268611e-07 1.048209428849884e-38  4.111141271703894e-23 9.227986859862627e-07 1.042279231729308e-38  4.101798038982794e-23 9.239784609940182e-07 2.021338595779183e-09  4.076884858623862e-23 9.19713142602617e-07 1.034672780020804e-38  4.039561915939896e-23 9.163513907873394e-07 1.026385421957903e-38  4.02777116776899e-23 9.181822829708746e-07 2.892908364913336e-09  3.99895915201965e-23 9.126942189381109e-07 1.017369797284368e-38  3.956088282775113e-23 9.088327543230159e-07 1.007850552060172e-38  3.933231347028477e-23 9.105506866269332e-07 3.776702050144866e-09  3.899318338853762e-23 9.037193723572151e-07 9.952450922905391e-39  3.838071201791071e-23 8.982027206841542e-07 9.816454959386647e-39  3.813234074809629e-23 9.008024824763769e-07 4.836891308594207e-09  3.771196817277948e-23 8.921792116206756e-07 9.667963996498437e-39  3.697265866024709e-23 8.85520103530371e-07 9.503804307870865e-39  3.661543199706156e-23 8.886034861439794e-07 6.300994348026829e-09  3.610193180878267e-23 8.776772932827776e-07 9.310464108139831e-39  3.500818654818602e-23 8.678257117866549e-07 9.067603873862022e-39  3.455700841509291e-23 8.723742535651642e-07 8.6123931226609e-09  3.382103199522436e-23 8.571327741819563e-07 8.804002610164699e-39  3.246195912325012e-23 8.448913340223713e-07 8.502227811242851e-39  3.192918080100813e-23 8.509608422707948e-07 1.08683487554637e-08  3.076422620188422e-23 8.295995153182951e-07 8.125255375449941e-39  2.88015052883377e-23 8.119208969685343e-07 7.689443785623406e-39  2.828058724736602e-23 8.21502013455181e-07 1.427312907706792e-08  2.654386321087383e-23 7.915858649309298e-07 7.188146542470815e-39  2.414095610052634e-23 7.699424017973961e-07 6.654593982482158e-39  2.340060257142016e-23 7.822837844488227e-07 1.900989440703666e-08  2.130154354782941e-23 7.44367247168842e-07 6.024117743999393e-39  1.82216075409841e-23 7.16625649863335e-07 5.340234570165048e-39  1.734770845545298e-23 7.336694624532543e-07 2.491519578183399e-08  1.484094386692859e-23 6.861753385378524e-07 4.589576440274988e-39  1.071420705810335e-23 6.490049978288894e-07 3.673256795929802e-39  9.633301251144317e-24 6.713813960392141e-07 3.211233218921136e-08  5.45802611172134e-24 6.016615287258535e-07 2.506150174275932e-39  -1.084612401337949e-25 5.515230679986988e-07 1.270141689413075e-39  -8.707277512381565e-25 5.819835316646647e-07 3.732635001669912e-08  -5.674948591988918e-24 5.013846072715442e-07 3.413320455022038e-41  -1.124143594384405e-23 4.512461465443895e-07 -1.201875280312637e-39  -1.428060417686656e-23 4.76254613060352e-07 5.238286035947538e-08  -1.68079232956992e-23 4.011076858172346e-07 -2.437883765175496e-39  -2.237441064755432e-23 3.5096922509008e-07 -3.673892250038351e-39  -2.553236474521664e-23 3.749971847780727e-07 5.247228148296293e-08  -2.794089799940946e-23 3.008307643629253e-07 -4.909900734901208e-39  -3.350738535126458e-23 2.506923036357707e-07 -6.145909219764063e-39  -3.664656390329734e-23 2.748916120406475e-07 5.247451511924524e-08  -3.907387270311956e-23 2.005538429086173e-07 -7.381917704626886e-39  -4.464036005497468e-23 1.504153821814627e-07 -8.61792618948974e-39  -4.778686398367663e-23 1.745505344629843e-07 5.247634012316538e-08  -5.020684740682983e-23 1.002769214543079e-07 -9.8539346743526e-39  -5.577333475868495e-23 5.013846072715324e-08 -1.108994315921545e-38  -5.9402427548126e-23 6.994109522973705e-08 5.249059637102312e-08  -6.13398221105399e-23 0 0  -6.716849298982199e-23 3.262652233999262e-55 5.249999999999989e-08  -7.299716386910404e-23 0 1.05e-07  -6.746492278537107e-23 4.982999776644719e-08 1.049999999999998e-07  2.301319865828242e-23 8.647844658040879e-07 1.049999999999998e-07  2.414672788881825e-23 8.749943894445973e-07 1.049999999999998e-07  2.440660507046355e-23 8.694357510350442e-07 9.710059603360698e-08  2.174830728891433e-23 8.533913372045873e-07 1.049999999999998e-07  2.325202461219459e-23 8.582062176531378e-07 9.627059889495925e-08  2.028877407411511e-23 8.40245030719978e-07 1.049999999999998e-07  2.202024905577085e-23 8.45849830949573e-07 9.500906006522254e-08  1.864363768732887e-23 8.254269594829697e-07 1.049999999999998e-07  2.06389696175899e-23 8.335116966134043e-07 9.511238485522643e-08  1.440545333322354e-23 7.872527885272172e-07 1.049999999999998e-07  1.655375951321309e-23 8.066030103505746e-07 1.049999999999998e-07  1.731588513788412e-23 7.977708312100094e-07 8.93032035008787e-08  1.211117411660559e-23 7.665877584771283e-07 1.049999999999998e-07  1.516220012244611e-23 7.770031403815303e-07 8.793418273839978e-08  9.585646368321459e-24 7.438398268249558e-07 1.049999999999998e-07  1.303076609637387e-23 7.558813475868939e-07 8.601064091493081e-08  6.778241607689252e-24 7.185529727572331e-07 1.049999999999998e-07  1.067010858923015e-23 7.320008269930742e-07 8.339303286015473e-08  3.677316885097165e-24 6.906223259068937e-07 1.049999999999998e-07  8.17689880735259e-24 7.04985791486407e-07 7.883483464272807e-08  2.785391326931076e-25 6.600088574684096e-07 1.049999999999998e-07  5.41158962437934e-24 6.718762023909559e-07 7.063293635928206e-08  -3.508204956959836e-24 6.259008989261927e-07 1.049999999999998e-07  1.049124314996824e-24 6.394102838642812e-07 7.746061211611092e-08  -1.244987481592944e-23 5.453614968363417e-07 1.049999999999998e-07  -7.718737097427694e-24 5.879757969685076e-07 1.049999999999998e-07  -6.319058621231398e-24 5.689669783475274e-07 7.338399845134726e-08  -1.767475303177289e-23 4.982999776644842e-07 1.049999999999998e-07  -8.258223596699605e-24 5.299876371306113e-07 5.187110255628821e-08  -2.320699411550596e-23 4.484699798980362e-07 1.049999999999998e-07  -3.427147628297224e-23 3.488099843651389e-07 1.049999999999998e-07  -2.873923519923911e-23 3.986399821315875e-07 1.049999999999998e-07  -4.533595845043855e-23 2.491499888322414e-07 1.049999999999998e-07  -3.98037173667054e-23 2.989799865986901e-07 1.049999999999998e-07  -5.640044061790477e-23 1.494899932993446e-07 1.049999999999998e-07  -5.086819953417161e-23 1.993199910657934e-07 1.049999999999998e-07  -6.193268170163791e-23 9.965999553289597e-08 1.049999999999998e-07  4.278003603567662e-23 9.378283086983394e-07 1.079330112284868e-38  4.267692622956003e-23 9.373032843638962e-07 4.037062343666848e-10  4.204740290755034e-23 9.322714431237017e-07 1.042106991019771e-09  4.172270841821059e-23 9.296305035425131e-07 1.325755372230805e-09  4.128479140646464e-23 9.260986721906598e-07 1.73832980221398e-09  4.067616162320122e-23 9.212838580905511e-07 2.405565432328679e-09  3.980911594998762e-23 9.145503363826315e-07 3.481696866005063e-09  3.876977458426227e-23 9.059704379800886e-07 4.263353238244997e-09  3.741888159491969e-23 8.950220119478546e-07 5.482689532852314e-09  3.570801059645097e-23 8.813879813207502e-07 7.258814888113389e-09  3.333661453398422e-23 8.623797162862985e-07 9.610186700207916e-09  3.017802084256949e-23 8.369073725563352e-07 1.258792571358492e-08  2.598615304467193e-23 8.028549342754766e-07 1.629247593792199e-08  2.056596204163552e-23 7.596397836984098e-07 2.189806572395858e-08  1.391793694264509e-23 7.048031199738485e-07 2.694148871652329e-08  4.264258783284386e-24 6.316737355366074e-07 4.07647070017853e-08  -1.994953372876012e-23 4.252704779885625e-07 5.245990332268068e-08  -3.109205482508871e-23 3.249218329876e-07 5.247416603650484e-08  -4.220619282978408e-23 2.248154315643077e-07 5.247502016619324e-08  -5.344585786778842e-23 1.235829632430052e-07 5.248045439874182e-08  1.984322899185667e-23 8.193387065989165e-07 8.810678921181008e-08  -2.030150401978741e-24 6.06471521918849e-07 7.225749110656384e-08  4.258256090720953e-23 9.36749751752053e-07 7.001408836722355e-10  4.271474904878898e-23 9.377939037488884e-07 5.536479501874679e-10  4.147269785153755e-23 9.289636226654234e-07 2.910769484955791e-09  4.230616541134089e-23 9.350070103849449e-07 1.446948820965862e-09  4.244240913940854e-23 9.36028284444171e-07 1.241048474277867e-09  4.186847192332344e-23 9.317647852884064e-07 2.147116183503219e-09  4.063021804160457e-23 9.229197938831257e-07 4.455324218820771e-09  4.026796126332e-23 9.202996875749948e-07 5.098136894079507e-09  3.969303929777232e-23 9.168822942307761e-07 6.859180249476177e-09  3.861728240464894e-23 9.083742475698097e-07 8.040690274533085e-09  3.799426739588423e-23 9.03593746215345e-07 8.871809242706369e-09  3.647025715381923e-23 8.924370986759654e-07 1.144222561987226e-08  3.436003632148092e-23 8.775736264100145e-07 1.558593286229785e-08  3.310351409276506e-23 8.685946210116428e-07 1.792467354598126e-08  2.993970194304621e-23 8.455279956681596e-07 2.335513463958617e-08  2.809475861440492e-23 8.314887714434289e-07 2.59336825896326e-08  2.575428939073966e-23 8.149772490471825e-07 3.050323284052817e-08  2.020515014169492e-23 7.746655359368081e-07 4.017372263860348e-08  1
[...]
<PointData  Vectors="f_25"> 
<DataArray  type="Float64"  Name="f_25"  NumberOfComponents="3" format="ascii">0.0000000000000000e+00 -1.5742095890620307e-10 -2.1874158268126782e-10  0.0000000000000000e+00 -1.5343593281404927e-10 -2.0438631293527347e-10  0.0000000000000000e+00 -1.4767738885188337e-10 -2.0843183563585128e-10  0.0000000000000000e+00 -1.4946601360967093e-10 -1.9136502432877734e-10  0.0000000000000000e+00 -1.4279908009951334e-10 -1.9759051079313909e-10  0.0000000000000000e+00 -1.4555811665928478e-10 -1.7949850691017723e-10  0.0000000000000000e+00 -1.3844959204593103e-10 -1.8526100912370928e-10  0.0000000000000000e+00 -1.4166036199734991e-10 -1.6846587012953322e-10  0.0000000000000000e+00 -1.3408712074095411e-10 -1.7332159691216814e-10  0.0000000000000000e+00 -1.3743847009722464e-10 -1.5723768189525573e-10  0.0000000000000000e+00 -1.3227735718017222e-10 -1.4451593156356670e-10  0.0000000000000000e+00 -1.2425079173143400e-10 -1.4897834120134192e-10  0.0000000000000000e+00 -1.2693612405545888e-10 -1.3221695059374261e-10  0.0000000000000000e+00 -1.2108086375286960e-10 -1.1966727464379460e-10  0.0000000000000000e+00 -1.1208254129208597e-10 -1.2295644453994250e-10  0.0000000000000000e+00 -1.1409859439623478e-10 -1.0586537524466762e-10  0.0000000000000000e+00 -1.0597908580931779e-10 -9.1184257686375160e-11  0.0000000000000000e+00 -9.7637155611190575e-11 -9.5363908545917169e-11  0.0000000000000000e+00 -9.5990420437873014e-11 -7.4957629972746267e-11  0.0000000000000000e+00 -8.5784934583598132e-11 -5.9863900370925367e-11  0.0000000000000000e+00 -7.8136688333719661e-11 -6.4202652394068147e-11  0.0000000000000000e+00 -7.5432241075775586e-11 -4.6127847279713261e-11  0.0000000000000000e+00 -6.5266023353783012e-11 -3.4195432824000861e-11  0.0000000000000000e+00 -5.7857003579788472e-11 -3.5240199381665333e-11  0.0000000000000000e+00 -5.3068705362003924e-11 -2.1674479163070837e-11  0.0000000000000000e+00 -4.1570055738484153e-11 -1.1567664820448812e-11  0.0000000000000000e+00 -3.7421644881135482e-11 -1.1911486097304563e-11  0.0000000000000000e+00 -3.0949079392076888e-11 -3.7548784618485926e-12  0.0000000000000000e+00 -2.1451555791494859e-11 1.8895812122477515e-12  0.0000000000000000e+00 -1.9386373901967482e-11 3.1111044639196008e-12  0.0000000000000000e+00 -1.2934419984268151e-11 5.6171346352456127e-12  0.0000000000000000e+00 -5.7344291473671319e-12 7.3560892867270748e-12  0.0000000000000000e+00 -5.8947532384693470e-12 9.1680298818281126e-12  0.0000000000000000e+00 -1.1223746595201883e-12 7.1072032760154092e-12  0.0000000000000000e+00 1.3722813964850160e-12 5.5963115185412184e-12  0.0000000000000000e+00 1.2191102590069045e-13 7.1105373128543465e-12  0.0000000000000000e+00 2.1022249250633822e-12 3.3656669184687305e-12  0.0000000000000000e+00 1.5991919716381178e-12 1.4708671034657570e-12  0.0000000000000000e+00 7.4668910394942908e-13 2.1525713080616024e-12  0.0000000000000000e+00 7.8328049775000800e-13 3.0678503435239002e-13  0.0000000000000000e+00 2.5322051074551569e-13 -9.3275051338687404e-14  0.0000000000000000e+00 2.3036811657623069e-14 -6.5291772009955628e-14  0.0000000000000000e+00 1.1012047832929608e-14 -1.3182705221344009e-13  0.0000000000000000e+00 -2.7832558025044598e-14 -5.6381333479511179e-14  0.0000000000000000e+00 -2.5692624124756194e-14 -8.4892375338034446e-14  0.0000000000000000e+00 -1.2792519347692292e-14 -6.6444592806622890e-15  0.0000000000000000e+00 -1.2601680229866929e-15 4.3259151765694766e-15  0.0000000000000000e+00 3.7047102883593225e-15 3.7521369849125177e-15  0.0000000000000000e+00 1.0965981880366037e-15 2.2495944595515061e-15  0.0000000000000000e+00 5.7554381633954181e-16 -3.8066195568394221e-16  0.0000000000000000e+00 1.9275002484433804e-18 5.0465898027360850e-16  0.0000000000000000e+00 -2.2841364552301452e-16 -1.3181200954372153e-15  0.0000000000000000e+00 -8.1524382853839409e-16 -1.1557834506565951e-15  0.0000000000000000e+00 -5.3336701072010317e-16 -1.4225082164616928e-15  0.0000000000000000e+00 -1.1014970118579215e-15 -3.4136078829296056e-16  0.0000000000000000e+00 -7.7060917412648994e-16 4.7640214313492064e-16  0.0000000000000000e+00 -3.6377204276198053e-16 2.5121781573187494e-16  0.0000000000000000e+00 -2.9539827043052709e-16 7.7501581725220625e-16  0.0000000000000000e+00 -1.0060739257654154e-18 6.1769170155187900e-16  0.0000000000000000e+00 -2.0295069331178372e-16 8.3735540188328541e-16  0.0000000000000000e+00 1.2738438972078989e-16 2.8799539622869739e-16  0.0000000000000000e+00 6.8129929716583574e-17 8.5915246113151064e-17  0.0000000000000000e+00 -9.1094052927497310e-17 1.7035420177195448e-16  0.0000000000000000e+00 1.2656295075245073e-17 1.3169607825987546e-17  0.0000000000000000e+00 6.4609460570217828e-18 3.2004165798001798e-17  0.0000000000000000e+00 -2.1146809417211667e-17 3.9645744799105665e-17  0.0000000000000000e+00 0.0000000000000000e+00 0.0000000000000000e+00  0.0000000000000000e+00 0.0000000000000000e+00 0.0000000000000000e+00  0.0000000000000000e+00 0.0000000000000000e+00 0.0000000000000000e+00  0.0000000000000000e+00 -3.1863920362620498e-17 5.1808006089811451e-17  0.0000000000000000e+00 -4.3135726947903431e-12 -7.3365079905219394e-12  0.0000000000000000e+00 -1.0911318411104091e-11 -6.2538590405338550e-12  0.0000000000000000e+00 -5.0647724462863139e-12 -8.9781662164776629e-12  0.0000000000000000e+00 -2.6934433003922283e-13 -6.6822417267320853e-12  0.0000000000000000e+00 -1.2929849679935387e-12 -8.1430073747459721e-12  0.0000000000000000e+00 1.6706900089878174e-12 -4.9176476267628471e-12  0.0000000000000000e+00 4.5944821600837762e-13 -6.1662008621941154e-12  0.0000000000000000e+00 1.9636072660777145e-12 -2.7408203484756356e-12  0.0000000000000000e+00 9.4477418178163339e-13 -3.9259822010437204e-12  0.0000000000000000e+00 6.2845014030934789e-13 -1.4649100909126548e-13  0.0000000000000000e+00 1.3517085816490222e-12 -1.0127854866769165e-12  0.0000000000000000e+00 2.5463359010504560e-13 -2.9525734023358502e-13  0.0000000000000000e+00 2.0734141912981576e-13 1.0697533340521047e-13  0.0000000000000000e+00 6.5734724674017483e-14 1.1385288230220715e-13  0.0000000000000000e+00 2.0639473521001558e-14 1.1534184794170110e-13  0.0000000000000000e+00 2.6720052295731015e-16 1.5671794645274658e-13  0.0000000000000000e+00 -2.4587041214582373e-14 6.4515140334453147e-14  0.0000000000000000e+00 -1.6450492020642548e-14 8.9121976140650366e-14  0.0000000000000000e+00 -1.6511794158584164e-14 2.0062495604396464e-14  0.0000000000000000e+00 -1.1246865820014233e-16 2.9095211196132967e-14  0.0000000000000000e+00 -8.8024658514073598e-15 5.4576227773078465e-15  0.0000000000000000e+00 3.2146871608759238e-15 6.0772123986937201e-15  0.0000000000000000e+00 -4.0973035164028912e-15 1.3919040427441383e-15  0.0000000000000000e+00 -6.5134578739305708e-16 2.0084341439766496e-15  0.0000000000000000e+00 -1.6206428360048622e-15 -6.1792562343367818e-16  0.0000000000000000e+00 -2.5753141801582759e-15 2.8451935920469908e-16  0.0000000000000000e+00 -1.2374679269017180e-15 -2.5285014486384510e-16  0.0000000000000000e+00 -8.4066435475691739e-16 -1.2545895430035751e-15  0.0000000000000000e+00 -6.3833525860013428e-16 -1.1587345791865635e-15  0.0000000000000000e+00 -1.0341671583549768e-16 -1.0539766327981484e-15  0.0000000000000000e+00 1.7548107074499753e-16 5.9161324362514360e-16  0.0000000000000000e+00 2.5088127619286809e-16 -2.0018461868673591e-16  0.0000000000000000e+00 -3.5867326163642033e-16 6.8040643128464144e-16  0.0000000000000000e+00 -1.3358781536005728e-16 8.7237022264244735e-16  0.0000000000000000e+00 -2.1380683009755877e-16 1.3081034210302921e-16  0.0000000000000000e+00 -3.4582400689179912e-16 3.5662354894318909e-16  0.0000000000000000e+00 -6.7739626837849543e-17 7.7474136268427692e-17  0.0000000000000000e+00 -1.6148921589842430e-10 -2.3501994953498281e-10  0.0000000000000000e+00 -1.5282780957205436e-10 -2.2568825290448632e-10  0.0000000000000000e+00 -1.2917307898035868e-10 -1.6137765998951332e-10  0.0000000000000000e+00 -1.1863866714059956e-10 -1.3667865768314917e-10  0.0000000000000000e+00 -1.0532103468633773e-10 -1.0936413155534306e-10  0.0000000000000000e+00 -8.8324948837784989e-11 -7.9701058130959878e-11  0.0000000000000000e+00 -6.7362609063104563e-11 -4.8795224817558607e-11  0.0000000000000000e+00 -4.7563242934304546e-11 -2.2695931503404294e-11  0.0000000000000000e+00 -2.7936088491745836e-11 -3.2521035905559488e-12  0.0000000000000000e+00 -1.2124067984988323e-11 7.1974515948321753e-12  0.0000000000000000e+00 -2.0225410540093313e-12 8.8553250875345013e-12  0.0000000000000000e+00 8.8332684761394606e-13 4.4871505088750650e-12  0.0000000000000000e+00 2.9043851854851152e-13 5.7601477613012977e-13  0.0000000000000000e+00 -5.1351488238654557e-14 -1.7019514453594631e-13  0.0000000000000000e+00 6.9848559250549091e-16 -1.6634187233240653e-14  0.0000000000000000e+00 1.7954319605134006e-15 3.3266777072380278e-15  0.0000000000000000e+00 -4.5036290732670408e-16 -8.0523570514108741e-16  0.0000000000000000e+00 -2.7630087280550025e-16 8.1385746113763114e-16  0.0000000000000000e+00 -1.4620191637621495e-16 5.0764648794225171e-16  0.0000000000000000e+00 -5.7709885678944158e-17 4.1455519157439465e-17  0.0000000000000000e+00 4.4988120493228769e-13 -1.7917994633937866e-12  0.0000000000000000e+00 -1.1406894591686898e-15 7.1767982784574422e-16  0.0000000000000000e+00 -1.4660217302923191e-10 -2.1661150814581608e-10  0.0000000000000000e+00 -1.5177236776639107e-10 -2.3371021570658227e-10  0.0000000000000000e+00 -1.0394331624203709e-10 -1.2929543184750394e-10  0.0000000000000000e+00 -1.3214818797023382e-10 -1.9165212780866273e-10  0.0000000000000000e+00 -1.3709435565698081e-10 -2.0542916019924596e-10  0.0000000000000000e+00 -1.1699726131563405e-10 -1.5499872508370059e-10  0.0000000000000000e+00 -8.0706179454754170e-11 -8.6511485543554912e-11  0.0000000000000000e+00 -7.2118133290879607e-11 -7.1887996193004311e-11  0.0000000000000000e+00 -5.7877008802030034e-11 -5.4871823566992126e-11  0.0000000000000000e+00 -4.0697475384880679e-11 -2.5801161037392030e-11  0.0000000000000000e+00 -3.2130458226423053e-11 -1.4413422462185046e-11  0.0000000000000000e+00 -1.5954873469501853e-11 2.1731086428864489e-12  0.0000000000000000e+00 -3.6683175363538456e-12 9.8086627312205362e-12  0.0000000000000000e+00 -4.5200737558595231e-13 9.9223369457146646e-12  0.0000000000000000e+00 1.0012388857423842e-12 5.6217937633650186e-12  0.0000000000000000e+00 3.9254393711992107e-13 3.0012420457259867e-12  0.0000000000000000e+00 -2.3955219429884456e-13 9.8104911617460289e-13  0.0000000000000000e+00 -3.4678781351378706e-13 -8.0421978473300233e-14  0.0000000000000000e+00 -1.3062577780747971e-13 -3.8270428353365834e-14  0.0000000000000000e+00 1.7055764836039484e-15 6.4166827036212063e-15  0.0000000000000000e+00 -1.5719250041184038e-10 -2.4163247730504929e-10  0.0000000000000000e+00 -1.5029066140916739e-10 -2.4063364585922976e-10  0.0000000000000000e+00 -4.1011533864655009e-13 -5.1419217774991418e-13  0.0000000000000000e+00 -5.1575074786407004e-13 -9.3442054287835956e-12  0.0000000000000000e+00 8.3015090743935776e-13 -7.0624497396640187e-12  0.0000000000000000e+00 5.9631167324490557e-13 -4.2235133363972022e-12  0.0000000000000000e+00 -2.4786020260503306e-13 9.6092050204828107e-14  0.0000000000000000e+00 -8.5477205814202131e-14 7.3872903129227867e-14  0.0000000000000000e+00 -1.2240261819219685e-10 -1.6741394132772429e-10  0.0000000000000000e+00 -8.9266029520040122e-11 -1.0141403664168866e-10  0.0000000000000000e+00 -1.2750541030059406e-10 -1.7953888731827102e-10  0.0000000000000000e+00 -1.1076255691827572e-10 -1.4227667854623862e-10  0.0000000000000000e+00 -2.3658877879705098e-13 -8.8606345324885506e-15  0.0000000000000000e+00 -1.4455656307979791e-10 -2.2537196542185941e-10  0.0000000000000000e+00 -1.6564098741783053e-10 -2.5384277901251277e-10  0.0000000000000000e+00 -9.6972189674551074e-11 -1.1542027410786419e-10  0.0000000000000000e+00 -4.9291306383898215e-11 -3.9362539483323318e-11  0.0000000000000000e+00 -2.3681125215729249e-11 -5.0402172569064602e-12  0.0000000000000000e+00 -9.2369724553981699e-12 7.1167867902987549e-12  0.0000000000000000e+00 9.4452207866330776e-13 8.3081341282910847e-12  0.0000000000000000e+00 -4.8405254147381423e-13 1.6325445484553217e-13  0.0000000000000000e+00 -2.0845354114479571e-14 1.2496884476740250e-14  0.0000000000000000e+00 -1.4325188984212572e-10 -2.3355685553994956e-10  0.0000000000000000e+00 -9.7080769625423752e-11 -1.3686033362403846e-10  0.0000000000000000e+00 -1.2468623145690036e-10 -1.9854786101646012e-10  0.0000000000000000e+00 4.5276056608668412e-13 8.7617886979346892e-12  0.0000000000000000e+00 -7.3122407514984957e-11 -9.5371341915495127e-11  0.0000000000000000e+00 -1.0543644509729914e-11 -5.8547076025961965e-13  0.0000000000000000e+00 -2.5410590098954984e-11 -1.8966739842345180e-11  0.0000000000000000e+00 3.0637635101849932e-12 5.9145440049363868e-12  0.0000000000000000e+00 -1.7821830499996840e-11 -8.7524436043144956e-12  0.0000000000000000e+00 -3.2847680197273018e-11 -3.1377264657329701e-11  0.0000000000000000e+00 3.1324577244990865e-12 9.8162556902929014e-12  0.0000000000000000e+00 -5.9150053381312531e-13 -1.7292824038132284e-14  0.0000000000000000e+00 1.3270303509719302e-12 3.1852463656944806e-12  0.0000000000000000e+00 -1.3687357353822722e-10 -2.1644596386597811e-10  0.0000000000000000e+00 -1.5577163859117655e-10 -2.4875275593058632e-10  0.0000000000000000e+00 -8.1359502023863102e-11 -1.0960130992415749e-10  0.0000000000000000e+00 -1.0403386553905755e-13 -1.7871288597530332e-12  0.0000000000000000e+00 2.4958092465399366e-12 -7.8167665046333193e-12  0.0000000000000000e+00 4.0858267750862428e-12 8.4694582257509402e-12  0.0000000000000000e+00 -1.1049693044493695e-10 -1.6247118723741604e-10  0.0000000000000000e+00 -6.5816991763769735e-11 -8.1741390391113956e-11  0.0000000000000000e+00 1.7121522744298282e-12 -4.3889755943665055e-12  0.0000000000000000e+00 -1.0393774700763343e-10 -1.4979628175585927e-10  0.0000000000000000e+00 -8.9411071991277487e-11 -1.2370648279531110e-10  0.0000000000000000e+00 -1.3620469075999782e-10 -2.2536790882900848e-10  0.0000000000000000e+00 -4.3287603988957668e-12 5.2814021256590021e-12  0.0000000000000000e+00 -3.9588305140618352e-11 -4.4878435370641724e-11  0.0000000000000000e+00 -1.5440930949223732e-10 -2.5464080328899430e-10  0.0000000000000000e+00 -1.5918427537628594e-10 -2.5687616640001355e-10  0.0000000000000000e+00 -1.5445747704279322e-10 -2.5985156594428310e-10  0.0000000000000000e+00 -1.5108022194960650e-10 -2.5156213178564015e-10  0.0000000000000000e+00 -1.4840484067428098e-10 -2.4662461011127671e-10  0.0000000000000000e+00 -1.5053490829400815e-10 -2.5663735543866692e-10  0.0000000000000000e+00 -1.5794571386228673e-10 -2.6349521959584646e-10  0.0000000000000000e+00 -6.6272495544872630e-13 3.6429495193845602e-14  0.0000000000000000e+00 -1.5438312682952704e-10 -2.6506756334679109e-10  0.0000000000000000e+00 -1.5051936729655306e-10 -2.6182154693393146e-10  0.0000000000000000e+00 -1.1677025909121582e-13 1.2244660705445258e-12  0.0000000000000000e+00 -1.2072960702150198e-10 -1.8630760285605837e-10  0.0000000000000000e+00 9.1168968442397132e-13 -4.6938772032648990e-13  0.0000000000000000e+00 -1.4664542298245137e-10 -2.5273506347918521e-10  0.0000000000000000e+00 -1.1575563216304427e-10 -1.7422958377982770e-10  0.0000000000000000e+00 -1.5775290500494917e-10 -2.6891600984364864e-10  0.0000000000000000e+00 -4.4391024883113607e-11 -5.9761616051241317e-11  0.0000000000000000e+00 -1.6103962119833317e-10 -2.6740215838862826e-10  0.0000000000000000e+00 -1.2813463503798963e-10 -2.0926908010209875e-10  0.0000000000000000e+00 -2.5083621027462644e-11 -3.8043242086922002e-11  0.0000000000000000e+00 -1.4618692462294853e-10 -2.5871529414794864e-10  0.0000000000000000e+00 -1.5076493229355666e-10 -2.6705436188520744e-10  0.0000000000000000e+00 -7.4882071128747164e-11 -1.1984159638015048e-10  0.0000000000000000e+00 4.0083695685422025e-12 1.9723287479363730e-12  0.0000000000000000e+00 -5.1532704312007064e-12 -5.2381067523100242e-12  0.0000000000000000e+00 -1.4380396717572949e-10 -2.4169377237021197e-10  0.0000000000000000e+00 -1.6204416806225348e-10 -2.6232240418042339e-10  0.0000000000000000e+00 -1.1441229745350668e-10 -1.9355939414753038e-10  0.0000000000000000e+00 -5.8077111135400136e-11 -6.7976813925843946e-11  0.0000000000000000e+00 4.4953975339607375e-12 -5.4542012792068393e-12  0.0000000000000000e+00 -8.2960408495758260e-11 -1.3329451136597085e-10  0.0000000000000000e+00 -1.1743252453553421e-10 -2.0563601265012932e-10  0.0000000000000000e+00 -1.3879809525291357e-10 -2.3799240353350042e-10  0.0000000000000000e+00 -5.0928857094643219e-11 -7.5927646060992823e-11  0.0000000000000000e+00 -3.0123786424173781e-11 -5.2254607538259398e-11  0.0000000000000000e+00 -5.9538491054999507e-11 -9.1456315248941452e-11  0.0000000000000000e+00 9.3521826621179619e-12 7.9823826211230780e-12  0.0000000000000000e+00 -1.5422389033036029e-10 -2.7066802563579418e-10  0.0000000000000000e+00 -1.4274408088721440e-10 -2.4846358291976523e-10  0.0000000000000000e+00 -1.1989819893916237e-11 -1.4171628748461167e-11  0.0000000000000000e+00 -1.2898751887354020e-10 -2.1886532655579741e-10  0.0000000000000000e+00 -1.6112242677999991e-10 -2.7219300010844409e-10  0.0000000000000000e+00 -1.9116430351383091e-11 -2.5493668828227915e-11  0.0000000000000000e+00 -6.7113813522154982e-11 -1.0576874459735249e-10  0.0000000000000000e+00 4.6901851753766170e-10 -4.5674972198542092e-10  0.0000000000000000e+00 4.4296850538599642e-10 -4.5908623379453692e-10  0.0000000000000000e+00 4.5522037440089172e-10 -4.5636372534183152e-10  0.0000000000000000e+00 4.1694501117218621e-10 -4.6080272899018149e-10  0.0000000000000000e+00 4.2918506067148207e-10 -4.5861314476864775e-10  0.0000000000000000e+00 3.6497681972591827e-10 -4.6239721666147888e-10  0.0000000000000000e+00 3.3903472976838591e-10 -4.6228640809827341e-10  0.0000000000000000e+00 3.5108738913268089e-10 -4.6073509404600109e-10  0.0000000000000000e+00 3.1310779941409731e-10 -4.6158346213039936e-10  0.0000000000000000e+00 3.2510224059018747e-10 -4.6046561607265941e-10  0.0000000000000000e+00 2.8719964201503394e-10 -4.6027641747628277e-10  0.0000000000000000e+00 2.9989286432721356e-10 -4.5948297966723908e-10  0.0000000000000000e+00 2.6130864363703978e-10 -4.5837053964097313e-10  0.0000000000000000e+00 2.7337824414019061e-10 -4.5789404784035220e-10  0.0000000000000000e+00 2.3541869059892225e-10 -4.5584900055135768e-10  0.0000000000000000e+00 2.0955427787810906e-10 -4.5269617699577560e-10  0.0000000000000000e+00 2.2308165545060586e-10 -4.5270464362509612e-10  0.0000000000000000e+00 1.8369023546629619e-10 -4.4890569396644098e-10  0.0000000000000000e+00 1.9576717544989419e-10 -4.4913458596292155e-10  0.0000000000000000e+00 1.5783767724457207e-10 -4.4445004061448753e-10  0.0000000000000000e+00 1.7066017626776258e-10 -4.4497159642289664e-10  0.0000000000000000e+00 1.3198976336070490e-10 -4.3930343023262723e-10  0.0000000000000000e+00 1.4480975360944219e-10 -4.4016637727052855e-10  0.0000000000000000e+00 1.0614517022809315e-10 -4.3343553533330526e-10  0.0000000000000000e+00 1.1749294514180674e-10 -4.3428439494617971e-10  0.0000000000000000e+00 8.0303640572229361e-11 -4.2679819681353367e-10  0.0000000000000000e+00 9.2636576058186240e-11 -4.2812697609797795e-10  0.0000000000000000e+00 5.4456525147454937e-11 -4.1933642040991137e-10  0.0000000000000000e+00 2.8625410917590955e-11 -4.1098526444905557e-10  0.0000000000000000e+00 4.4231116943458202e-11 -4.1401029015149193e-10  0.0000000000000000e+00 2.7812884502929605e-12 -4.0166441710797493e-10  0.0000000000000000e+00 -2.3063214919761862e-11 -3.9123868015442702e-10  0.0000000000000000e+00 -7.3460444131015637e-12 -3.9528086939622417e-10  0.0000000000000000e+00 -4.8902941962030793e-11 -3.7955631303809205e-10  0.0000000000000000e+00 -3.3071086050308345e-11 -3.8411494979886634e-10  0.0000000000000000e+00 -7.4748928200060884e-11 -3.6640147363580427e-10  0.0000000000000000e+00 -6.0326884538498170e-1