<?xml version="1.0"?>
<VTKFile type="UnstructuredGrid"  version="0.1"  >
<UnstructuredGrid>
<Piece  NumberOfPoints="10255" NumberOfCells="20084">
<Points>
<DataArray  type="Float64"  NumberOfComponents="3"  format="ascii">3.844048242159513e-23 9.668024050202114e-07 6.806132040053538e-08  3.847771034822294e-23 9.669985028792288e-07 6.792209890657517e-08  3.846275168462127e-23 9.667995157296344e-07 6.785784742062565e-08  3.849515485966175e-23 9.66881460186319e-07 6.764793002323432e-08  3.826261808533084e-23 9.671368147404781e-07 6.999778963784674e-08  3.827047817448044e-23 9.673487965730955e-07 7.013897408133369e-08  3.829712155069505e-23 9.67289615477493e-07 6.983981078734716e-08  3.827842198569474e-23 9.6702762487079e-07 6.97462508885789e-08  3.830685169615466e-23 9.669963435244612e-07 6.945889747538301e-08  3.833147330156461e-23 9.6697145459291e-07 6.92122368379328e-08  3.829799937986237e-23 9.667855146597201e-07 6.93278031873525e-08  3.835151956772123e-23 9.672196735068342e-07 6.927989503827068e-08  3.831765008692744e-23 9.672173958076393e-07 6.958268650124011e-08  3.823134268333262e-23 9.670860999899879e-07 7.022877866492658e-08  3.851763327231582e-23 9.671399826065241e-07 6.770398490173397e-08  3.844872647732786e-23 9.669672589419473e-07 6.815191846961932e-08  3.843582551562757e-23 9.666514244242841e-07 6.795228548456842e-08  3.823260119216773e-23 9.67300062859279e-07 7.043140589437603e-08  3.820536825621054e-23 9.671037125959562e-07 7.048034811151126e-08  3.853792223775423e-23 9.670839790148847e-07 6.746523455571831e-08  3.823838481073238e-23 9.669262018540541e-07 7.00054506843259e-08  3.852378275260632e-23 9.668509967921981e-07 6.735960949311835e-08  3.831298354381371e-23 9.675249312272394e-07 6.993225440449647e-08  3.827228454833497e-23 9.668080369235606e-07 6.958194406256246e-08  3.848314957974162e-23 9.666363215251921e-07 6.75109253104571e-08  3.855876557599983e-23 9.670435346494902e-07 6.723705008961174e-08  3.855895812834488e-23 9.668573543793815e-07 6.704913546216421e-08  3.845718954166323e-23 9.666406440882543e-07 6.774907510915194e-08  3.819018927463628e-23 9.671885223965661e-07 7.070187802364459e-08  3.840393858508891e-23 9.66582046434885e-07 6.817011943215308e-08  3.841667390037991e-23 9.668187823471801e-07 6.829214582205028e-08  3.835168078156165e-23 9.673946863482041e-07 6.945345579445738e-08  3.833439869990552e-23 9.668049949853972e-07 6.901942758466391e-08  3.836743775552862e-23 9.670973061213436e-07 6.901414936342462e-08  3.833317083353102e-23 9.6745123705859e-07 6.967672929495003e-08  3.850537837935407e-23 9.672590983930806e-07 6.793348295104243e-08  3.838097640111035e-23 9.66977078191895e-07 6.877197615558203e-08  3.820285047731837e-23 9.668149747664341e-07 7.021428841815029e-08  3.838331428892171e-23 9.674856659373121e-07 6.925950607964695e-08  3.824765165955912e-23 9.66815075548659e-07 6.981085602508482e-08  3.835771632846801e-23 9.667253825637828e-07 6.872978863643911e-08  3.822697846726142e-23 9.674503969019602e-07 7.063238494064292e-08  3.839376310420903e-23 9.673528814796281e-07 6.903260706069408e-08  3.819601179172463e-23 9.669304191413517e-07 7.039133019685132e-08  3.821376019694659e-23 9.666854386434889e-07 6.998648627670042e-08  3.837038278196857e-23 9.676018903122847e-07 6.949220711441053e-08  3.837884713353962e-23 9.666509173959273e-07 6.846499409689057e-08  3.835182831277372e-23 9.676902387322564e-07 6.974767933548623e-08  3.817293324540677e-23 9.669384667312641e-07 7.060725085195835e-08  3.839818474268019e-23 9.668918098756168e-07 6.853170887794066e-08  3.855504150302931e-23 9.673252921870794e-07 6.75523510944855e-08  3.853509733135734e-23 9.673458283233864e-07 6.775252835901275e-08  3.841981839919249e-23 9.664716878022997e-07 6.791672814980867e-08  3.826007096790913e-23 9.665915923766999e-07 6.947550966821106e-08  3.829090697536132e-23 9.665855197196831e-07 6.919169094785173e-08  3.823453767808358e-23 9.666200788689649e-07 6.973397958956387e-08  3.844421604978596e-23 9.66440006792875e-07 6.766529264014101e-08  3.847204503616063e-23 9.671672698685726e-07 6.814189449050439e-08  3.816785278456588e-23 9.66734969428055e-07 7.044951427184908e-08  3.853304329209096e-23 9.674903202653027e-07 6.791552144187833e-08  3.859258127140898e-23 9.671449879196127e-07 6.703391865324638e-08  3.86038071682052e-23 9.670175866532766e-07 6.680540349765351e-08  3.836238504346035e-23 9.664162595860557e-07 6.837861361251244e-08  3.840860029587257e-23 9.672422913669012e-07 6.878837540627293e-08  3.856338911215014e-23 9.675297364428832e-07 6.768160677163732e-08  3.843588311980644e-23 9.670409665772654e-07 6.834130878523278e-08  3.833923268945905e-23 9.664820219358116e-07 6.865291382797435e-08  3.831778228088765e-23 9.665490014466125e-07 6.891310144287344e-08  3.814903584378647e-23 9.669512017886719e-07 7.083523456743073e-08  3.815444185441888e-23 9.671458923815153e-07 7.098123214533488e-08  3.819233248516805e-23 9.673835321967239e-07 7.087758349949779e-08  3.829493150785181e-23 9.675846055566055e-07 7.015452701872513e-08  3.826217979264891e-23 9.67517160841688e-07 7.038208352857474e-08  3.858228399677651e-23 9.673003103820363e-07 6.728199072006539e-08  3.862937911340422e-23 9.672707607843613e-07 6.68282460229993e-08  3.864125381110167e-23 9.671868681519287e-07 6.663739562231604e-08  3.953330702206321e-23 9.891795424637936e-07 8.059516891721879e-08  3.954235706843712e-23 9.890355852315782e-07 8.036969611404897e-08  3.950403264943381e-23 9.889468291076021e-07 8.062613566835783e-08  3.94973099082713e-23 9.891076516889951e-07 8.084751131893965e-08  3.946853893286052e-23 9.888712691696455e-07 8.087027470786821e-08  3.951200604316462e-23 9.887860506967354e-07 8.039353931142125e-08  3.955432016789495e-23 9.889041309280247e-07 8.01304877899745e-08  3.956902937136678e-23 9.887936485164883e-07 7.988751665188885e-08  3.952684913003707e-23 9.886627881296539e-07 8.013658210332421e-08  3.94759362160976e-23 9.887168303575267e-07 8.064920709168922e-08  3.945956186996179e-23 9.890430081010247e-07 8.112287183349854e-08  3.943352515702075e-23 9.88776471694617e-07 8.109085328848934e-08  3.954268678023316e-23 9.885607132974852e-07 7.989185440011241e-08  3.94399040341712e-23 9.886405611070307e-07 8.089748688338737e-08  3.948216829374343e-23 9.885417441750713e-07 8.041798734410678e-08  3.959079770704154e-23 9.88710536534797e-07 7.960833293333076e-08  3.966279752076215e-23 9.88602179779903e-07 7.885145950995099e-08  3.969324389136989e-23 9.88617012076978e-07 7.859205528037846e-08  3.965626451454869e-23 9.884068546473727e-07 7.871497846611792e-08  3.944510570002654e-23 9.88496462664786e-07 8.070653600032705e-08  3.963277302582222e-23 9.887672356166279e-07 7.928695195512288e-08  3.95939985956376e-23 9.885286875015358e-07 7.939765285869269e-08  3.940610246418789e-23 9.885506634720076e-07 8.11120467243271e-08  3.955641062893041e-23 9.884501721640697e-07 7.965769982693882e-08  3.966762204717117e-23 9.887950432917326e-07 7.900086755110492e-08  3.962850953194374e-23 9.885678543747835e-07 7.912597285216337e-08  3.950183351618427e-23 9.8843034427285e-07 8.012945886497203e-08  3.95160993136316e-23 9.883320294362482e-07 7.990264914823441e-08  3.968650329297324e-23 9.884270763208198e-07 7.846283343707506e-08  3.941008928453145e-23 9.884163554354434e-07 8.094182860253557e-08  3.962431456735118e-23 9.883773950478923e-07 7.897329840722394e-08  3.971488282188316e-23 9.884230719834517e-07 7.820320902805972e-08  3.967942245529275e-23 9.882375517623335e-07 7.833708739446747e-08  3.952804208618856e-23 9.882281852076592e-07 7.969123398757085e-08  3.95617592674575e-23 9.88312479028062e-07 7.947183043797603e-08  3.959338149888106e-23 9.883504359436013e-07 7.922495961420378e-08  3.944608100249588e-23 9.883548797685029e-07 8.055616836036899e-08  3.965101833878736e-23 9.882279805352573e-07 7.858335770441016e-08  3.947721808733972e-23 9.88199328232216e-07 8.012015889668181e-08  3.946268836069749e-23 9.882866445387155e-07 8.033834734616479e-08  3.97033961091929e-23 9.882103996036781e-07 7.809399975826917e-08  3.973993359343305e-23 9.884021237809149e-07 7.79566235346881e-08  3.937480819176745e-23 9.883329245796995e-07 8.117618157924199e-08  3.94901158908498e-23 9.880927187342763e-07 7.989737631257835e-08  3.941416346171646e-23 9.882716987292608e-07 8.076047497064845e-08  3.961845715975573e-23 9.881826574388997e-07 7.883131963555974e-08  3.945237277666738e-23 9.879580754138897e-07 8.010269274212722e-08  3.953477614883753e-23 9.881243293723525e-07 7.952672310819092e-08  3.950330301602644e-23 9.880003366207952e-07 7.968621513503403e-08  3.964774331540478e-23 9.8806811094983e-07 7.845298690715369e-08  3.97275425334606e-23 9.881845458003283e-07 7.785065430025071e-08  3.958661184191572e-23 9.881478116267631e-07 7.908331094653868e-08  3.937877544124881e-23 9.881838171828358e-07 8.099134037580647e-08  3.955925455856533e-23 9.881370178745037e-07 7.931892969648473e-08  3.966557826672814e-23 9.880203691225144e-07 7.824460211956996e-08  3.942375042586958e-23 9.881500989773127e-07 8.05525235223251e-08  3.94679314694925e-23 9.878697800372506e-07 7.987425711906895e-08  3.961264388966963e-23 9.879711670549926e-07 7.867219053363974e-08  3.943864860065279e-23 9.880565823686975e-07 8.032481608490566e-08  3.934155539547587e-23 9.882868312539529e-07 8.142960281547089e-08  3.934292586662904e-23 9.881052450431472e-07 8.12356724979158e-08  3.952058660148092e-23 9.879355793583202e-07 7.946578117453421e-08  3.938616452956326e-23 9.880410503124971e-07 8.078201851470861e-08  3.939841727696638e-23 9.879215961802921e-07 8.055220144522568e-08  3.968808479545972e-23 9.879784176287742e-07 7.799992983701197e-08  3.957697056454276e-23 9.879362707920605e-07 7.895861101820457e-08  3.930580782493378e-23 9.880556178357165e-07 8.152037488798016e-08  3.962987653108e-23 9.878776521960197e-07 7.842345783979816e-08  3.948373546682379e-23 9.877823561914973e-07 7.964448352033135e-08  3.94294458385861e-23 9.87732373659242e-07 8.008349848707879e-08  3.94143142459661e-23 9.878240034690913e-07 8.03114
[...]
<PointData  Tensors="f_71"> 
<DataArray  type="Float64"  Name="f_71"  NumberOfComponents="9" format="ascii">-1.0768277943715942e+09 8.5392550547933290e-08 4.4728404157707673e-08 8.5392550547933290e-08 -1.5688916752042878e+08 -4.4077610937913366e+07 4.4728404157707673e-08 -4.4077610937913366e+07 -3.7786763463256085e+08  -1.0766688445595679e+09 8.5515817938169637e-08 4.4848917198702068e-08 8.5515817938169637e-08 -1.5655833705741817e+08 -4.5199128444350936e+07 4.4848917198702068e-08 -4.5199128444350936e+07 -3.7972200573673445e+08  -1.0771805560879838e+09 8.5393683225234708e-08 4.4842455808975342e-08 8.5393683225234708e-08 -1.5750072350673822e+08 -4.3533733217007928e+07 4.4842455808975342e-08 -4.3533733217007928e+07 -3.7931918161213344e+08  -1.0773418567287016e+09 8.5449730643424928e-08 4.4981979404020523e-08 8.5449730643424928e-08 -1.5769449529794142e+08 -4.3476550008979425e+07 4.4981979404020523e-08 -4.3476550008979425e+07 -3.8104226074637544e+08  -1.0729916917186130e+09 8.5573573567205960e-08 4.3613210116462930e-08 8.5573573567205960e-08 -1.5016805930642584e+08 -5.2595116923686393e+07 4.3613210116462930e-08 -5.2595116923686393e+07 -3.6507359609847707e+08  -1.0725901380153075e+09 8.5685033559006927e-08 4.3593894768990619e-08 8.5685033559006927e-08 -1.4942127418099773e+08 -5.4578654628954545e+07 4.3593894768990619e-08 -5.4578654628954545e+07 -3.6557340849871951e+08  -1.0731766286305836e+09 8.5652157254394268e-08 4.3754469446953938e-08 8.5652157254394268e-08 -1.5045272942644727e+08 -5.3061706497492328e+07 4.3754469446953938e-08 -5.3061706497492328e+07 -3.6720920621904975e+08  -1.0736672707471124e+09 8.5516430389092771e-08 4.3728959498720993e-08 8.5516430389092771e-08 -1.5140059694994482e+08 -5.0991210187974185e+07 4.3728959498720993e-08 -5.0991210187974185e+07 -3.6621977348560888e+08  -1.0741830757820282e+09 8.5507088275354027e-08 4.3909873196978997e-08 8.5507088275354027e-08 -1.5228142724074027e+08 -4.9753539038229585e+07 4.3909873196978997e-08 -4.9753539038229585e+07 -3.6819474934552377e+08  -1.0746287394398577e+09 8.5505685757930462e-08 4.4048404472149547e-08 8.5505685757930462e-08 -1.5305555133356854e+08 -4.9100623754714936e+07 4.4048404472149547e-08 -4.9100623754714936e+07 -3.7000033523651361e+08  -1.0750048275479257e+09 8.5375732377630320e-08 4.3962063962957768e-08 8.5375732377630320e-08 -1.5375476053794304e+08 -4.7816871806014873e+07 4.3962063962957768e-08 -4.7816871806014873e+07 -3.6872133122084212e+08  -1.0742393051962135e+09 8.5634983001386332e-08 4.4083250816318638e-08 8.5634983001386332e-08 -1.5230932618447319e+08 -5.0962095629824728e+07 4.4083250816318638e-08 -5.0962095629824728e+07 -3.7106270281646168e+08  -1.0738052757826257e+09 8.5620684193366704e-08 4.3896178343286554e-08 8.5620684193366704e-08 -1.5157472317609406e+08 -5.1928462963657223e+07 4.3896178343286554e-08 -5.1928462963657223e+07 -3.6897026765548980e+08  -1.0727962054586498e+09 8.5506220457068046e-08 4.3438577148595596e-08 8.5506220457068046e-08 -1.4988006016811284e+08 -5.2773888314659253e+07 4.3438577148595596e-08 -5.2773888314659253e+07 -3.6298760259305781e+08  -1.0768378325551159e+09 8.5575383976432036e-08 4.5014525257764925e-08 8.5575383976432036e-08 -1.5678703472114909e+08 -4.5252549383739166e+07 4.5014525257764925e-08 -4.5252549383739166e+07 -3.8193210218136078e+08  -1.0765390197227600e+09 8.5486629215101880e-08 4.4682441598183423e-08 8.5486629215101880e-08 -1.5636369985833418e+08 -4.5712635230310276e+07 4.4682441598183423e-08 -4.5712635230310276e+07 -3.7785432878828788e+08  -1.0772308784426429e+09 8.5306843512163101e-08 4.4743521444108417e-08 8.5306843512163101e-08 -1.5760915071409574e+08 -4.2697755392642766e+07 4.4743521444108417e-08 -4.2697755392642766e+07 -3.7770118778194463e+08  -1.0720885250396419e+09 8.5648065961623400e-08 4.3348595035153700e-08 8.5648065961623400e-08 -1.4858772993019527e+08 -5.5239583929714672e+07 4.3348595035153700e-08 -5.5239583929714672e+07 -3.6242645062946939e+08  -1.0724135548091639e+09 8.5523017568859743e-08 4.3276668801431662e-08 8.5523017568859743e-08 -1.4921924093857712e+08 -5.3747521703318812e+07 4.3276668801431662e-08 -5.3747521703318812e+07 -3.6108777997585660e+08  -1.0772824113767800e+09 8.5559370146470324e-08 4.5136217603571049e-08 8.5559370146470324e-08 -1.5754471284325802e+08 -4.4322821204957269e+07 4.5136217603571049e-08 -4.4322821204957269e+07 -3.8331461313669461e+08  -1.0736219001103159e+09 8.5417326552313559e-08 4.3561879402955690e-08 8.5417326552313559e-08 -1.5134945215143645e+08 -5.0736955267307192e+07 4.3561879402955690e-08 -5.0736955267307192e+07 -3.6416807684577405e+08  -1.0777993577682095e+09 8.5426900680982417e-08 4.5137028577883991e-08 8.5426900680982417e-08 -1.5865337279693180e+08 -4.2447514366111971e+07 4.5137028577883991e-08 -4.2447514366111971e+07 -3.8294829192593437e+08  -1.0725734901841189e+09 8.5793495721388475e-08 4.3757169027864231e-08 8.5793495721388475e-08 -1.4933189881640774e+08 -5.5432556777141929e+07 4.3757169027864231e-08 -5.5432556777141929e+07 -3.6802731022415274e+08  -1.0744946456788280e+09 8.5374821491717721e-08 4.3795372208067273e-08 8.5374821491717721e-08 -1.5284510777366754e+08 -4.8686032853351645e+07 4.3795372208067273e-08 -4.8686032853351645e+07 -3.6666313664909089e+08  -1.0778515005095241e+09 8.5314283598040823e-08 4.5009821680073757e-08 8.5314283598040823e-08 -1.5869129959366682e+08 -4.1356163767792143e+07 4.5009821680073757e-08 -4.1356163767792143e+07 -3.8082103608146042e+08  -1.0776152855300269e+09 8.5572240122022684e-08 4.5243817687234460e-08 8.5572240122022684e-08 -1.5806034969285348e+08 -4.3633741185373053e+07 4.5243817687234460e-08 -4.3633741185373053e+07 -3.8440343626546508e+08  -1.0780830168052392e+09 8.5431986898552782e-08 4.5311112662679016e-08 8.5431986898552782e-08 -1.5910598723676109e+08 -4.1517166670780212e+07 4.5311112662679016e-08 -4.1517166670780212e+07 -3.8481908985138786e+08  -1.0774530289682040e+09 8.5310135439853675e-08 4.4842441713751132e-08 8.5310135439853675e-08 -1.5804959663516176e+08 -4.2103803156037614e+07 4.4842441713751132e-08 -4.2103803156037614e+07 -3.7877360893126702e+08  -1.0716911484050784e+09 8.5588335407626251e-08 4.3157447841455812e-08 8.5588335407626251e-08 -1.4792393413881007e+08 -5.5220747204112075e+07 4.3157447841455812e-08 -5.5220747204112075e+07 -3.5966934267442870e+08  -1.0769553148725889e+09 8.5279426306596098e-08 4.4596735132149280e-08 8.5279426306596098e-08 -1.5718391140149274e+08 -4.2953051243418634e+07 4.4596735132149280e-08 -4.2953051243418634e+07 -3.7574971375171274e+08  -1.0764501526981130e+09 8.5412260067632617e-08 4.4570427746515424e-08 8.5412260067632617e-08 -1.5623360743264720e+08 -4.4994181340415955e+07 4.4570427746515424e-08 -4.4994181340415955e+07 -3.7595210424330920e+08  -1.0736067417558922e+09 8.5744000268671522e-08 4.4005181572170654e-08 8.5744000268671522e-08 -1.5116257153800541e+08 -5.2948874934200004e+07 4.4005181572170654e-08 -5.2948874934200004e+07 -3.7051591354978430e+08  -1.0753096481431267e+09 8.5398693271135902e-08 4.4139753063439533e-08 8.5398693271135902e-08 -1.5428092840710327e+08 -4.7035258698432364e+07 4.4139753063439533e-08 -4.7035258698432364e+07 -3.7069141265765089e+08  -1.0749868130062356e+09 8.5556143606004618e-08 4.4233818789755328e-08 8.5556143606004618e-08 -1.5363178434557435e+08 -4.9081091864998460e+07 4.4233818789755328e-08 -4.9081091864998460e+07 -3.7266304357467103e+08  -1.0731443851712265e+09 8.5760586310521554e-08 4.3887819777994720e-08 8.5760586310521554e-08 -1.5033888327926931e+08 -5.3992089823661089e+07 4.3887819777994720e-08 -5.3992089823661089e+07 -3.6927897015590692e+08  -1.0763441551953528e+09 8.5655936305686490e-08 4.4921066652668019e-08 8.5655936305686490e-08 -1.5591917107105994e+08 -4.6806736526205175e+07 4.4921066652668019e-08 -4.6806736526205175e+07 -3.8106470847740501e+08  -1.0754655017355161e+09 8.5482268099932964e-08 4.4321420639031492e-08 8.5482268099932964e-08 -1.5450072535684809e+08 -4.7561115624281041e+07 4.4321420639031492e-08 -4.7561115624281041e+07 -3.7342462207050663e+08  -1.0732354272362868e+09 8.5360719556263827e-08 4.3390972502668267e-08 8.5360719556263827e-08 -1.5069788738252011e+08 -5.0575710342688948e+07 4.3390972502668267e-08 -5.0575710342688948e+07 -3.6155749219214934e+08  -1.0738746201615307e+09 8.5798068372224003e-08 4.4188442804427508e-08 8.5798068372224003e-08 -1.5158567080088183e+08 -5.2858921640835404e+07 4.4188442804427508e-08 -5.2858921640835404e+07 -3.7297812262927127e+08  -1.0740004808335667e+09 8.5375738569438968e-08 4.3634270941232380e-08 8.5375738569438968e-08 -1.5204882080834955e+08 -4.9417325068241924e+07 4.3634270941232380e-08 -4.9417325068241924e+07 -3.6458218701309347e+08  -1.0759601793891525e+09 8.5347869575636158e-08 4.4296291195445923e-08 8.5347869575636158e-08 -1.5542716979184735e+08 -4.5515063716602705e+07 4.4296291195445923e-08 -4.5515063716602705e+07 -3.7244869996999586e+08  -1.0714171716085298e+09 8.5737484279204920e-08 4.3282676887994250e-08 8.5737484279204920e-08 -1.4737065453759906e+08 -5.7104656227672033e+07 4.3282676887994250e-08 -5.7104656227672033e+07 -3.6205257976912946e+08  -1.0744295265123105e+09 8.5703092551899854e-08 4.4268094437419203e-08 8.5703092551899854e-08 -1.5259304496629786e+08 -5.1149217955415480e+07 4.4268094437419203e-08 -5.1149217955415480e+07 -3.7365314988289636e+08  -1.0725812129562153e+09 8.5456070614696637e-08 4.3315286007691277e-08 8.5456070614696637e-08 -1.4952142032876584e+08 -5.2170119119237065e+07 4.3315286007691277e-08 -5.2170119119237065e+07 -3.6074557222419763e+08  -1.0738185339779656e+09 8.5291362083139628e-08 4.3481302255976256e-08 8.5291362083139628e-08 -1.5179032351651973e+08 -4.8986589320013314e+07 4.3481302255976256e-08 -4.8986589320013314e+07 -3.6235874047139001e+08  -1.0732044834793473e+09 8.5872222819277968e-08 4.4066931216837769e-08 8.5872222819277968e-08 -1.5038162127340430e+08 -5.4622563449557185e+07 4.4066931216837769e-08 -5.4622563449557185e+07 -3.7178923299329108e+08  -1.0764651107084005e+09 8.5304566462183179e-08 4.4441736377697858e-08 8.5304566462183179e-08 -1.5631453609120232e+08 -4.4242490636576474e+07 4.4441736377697858e-08 -4.4242490636576474e+07 -3.7410726380376548e+08  -1.0726134352844567e+09 8.5902430584119805e-08 4.3929565922778485e-08 8.5902430584119805e-08 -1.4933776627739048e+08 -5.5922657706999995e+07 4.3929565922778485e-08 -5.5922657706999995e+07 -3.7030170915528226e+08  -1.0721024175830998e+09 8.5467154858345280e-08 4.3158464576113480e-08 8.5467154858345280e-08 -1.4872606984050995e+08 -5.3019003120593250e+07 4.3158464576113480e-08 -5.3019003120593250e+07 -3.5877353883983451e+08  -1.0760855859969802e+09 8.5431347885368011e-08 4.4452016487193755e-08 8.5431347885368011e-08 -1.5559135643712422e+08 -4.6141768203801185e+07 4.4452016487193755e-08 -4.6141768203801185e+07 -3.7486778317935634e+08  -1.0767772991351006e+09 8.5687519726637836e-08 4.5158651181401799e-08 8.5687519726637836e-08 -1.5662955395500246e+08 -4.6077607065765291e+07 4.5158651181401799e-08 -4.6077607065765291e+07 -3.8401111028618354e+08  -1.0764502617184594e+09 8.5690697812455986e-08 4.5038635516710953e-08 8.5690697812455986e-08 -1.5607299421579656e+08 -4.6824388892829999e+07 4.5038635516710953e-08 -4.6824388892829999e+07 -3.8266290437090057e+08  -1.0776064534352858e+09 8.5207347277495794e-08 4.4735558371598108e-08 8.5207347277495794e-08 -1.5835664270632493e+08 -4.1267297839546703e+07 4.4735558371598108e-08 -4.1267297839546703e+07 -3.7724406488598669e+08  -1.0749954513052766e+09 8.5259463651298676e-08 4.3813286109865224e-08 8.5259463651298676e-08 -1.5375294242793342e+08 -4.6680782179109193e+07 4.3813286109865224e-08 -4.6680782179109193e+07 -3.6622685072163582e+08  -1.0753930494853156e+09 8.5263613486594422e-08 4.3985467463434774e-08 8.5263613486594422e-08 -1.5448759347264352e+08 -4.5767847382295638e+07 4.3985467463434774e-08 -4.5767847382295638e+07 -3.6821537257762456e+08  -1.0744129833736794e+09 8.5258781596785489e-08 4.3647867199838745e-08 8.5258781596785489e-08 -1.5285349215883955e+08 -4.7630876234173447e+07 4.3647867199838745e-08 -4.7630876234173447e+07 -3.6425324748189694e+08  -1.0779767008758442e+09 8.5194420703257419e-08 4.4872002050555546e-08 8.5194420703257419e-08 -1.5894639620383140e+08 -4.0378203568192311e+07 4.4872002050555546e-08 -4.0378203568192311e+07 -3.7879045273876184e+08  -1.0760993501576893e+09 8.5610641999292075e-08 4.4747889115927370e-08 8.5610641999292075e-08 -1.5551759934293211e+08 -4.6946107557692118e+07 4.4747889115927370e-08 -4.6946107557692118e+07 -3.7875020193740600e+08  -1.0728551049060701e+09 8.5336021064441592e-08 4.3228173162600038e-08 8.5336021064441592e-08 -1.5006489433433345e+08 -5.0751996470272318e+07 4.3228173162600038e-08 -5.0751996470272318e+07 -3.5917420359255224e+08  -1.0760210450122023e+09 8.5776809859740873e-08 4.4986087943747157e-08 8.5776809859740873e-08 -1.5528680761394021e+08 -4.8404680914070554e+07 4.4986087943747157e-08 -4.8404680914070554e+07 -3.8243490352613360e+08  -1.0778423025331528e+09 8.5589681346755722e-08 4.5416785748930203e-08 8.5589681346755722e-08 -1.5851311527915928e+08 -4.3313093503921382e+07 4.5416785748930203e-08 -4.3313093503921382e+07 -3.8675426821208346e+08  -1.0782331633877740e+09 8.5520344603654684e-08 4.5483787987798938e-08 8.5520344603654684e-08 -1.5919153954180929e+08 -4.1809319247687951e+07 4.5483787987798938e-08 -4.1809319247687951e+07 -3.8710537219103295e+08  -1.0769164105087159e+09 8.5183865117310586e-08 4.4450971696505928e-08 8.5183865117310586e-08 -1.5716264475518358e+08 -4.2220721910262823e+07 4.4450971696505928e-08 -4.2220721910262823e+07 -3.7353256009018177e+08  -1.0750234286881163e+09 8.5631327699963982e-08 4.4379911539049748e-08 8.5631327699963982e-08 -1.5364943513874084e+08 -4.9467292836377509e+07 4.4379911539049748e-08 -4.9467292836377509e+07 -3.7469222127972287e+08  -1.0762372917033751e+09 8.5805393599206105e-08 4.5136239865196339e-08 8.5805393599206105e-08 -1.5563945875222868e+08 -4.7930444920727588e+07 4.5136239865196339e-08 -4.7930444920727588e+07 -3.8417482302122653e+08  -1.0760633651138022e+09 8.5528891290569384e-08 4.4601821025103744e-08 8.5528891290569384e-08 -1.5550569358035693e+08 -4.6702976013818540e+07 4.4601821025103744e-08 -4.6702976013818540e+07 -3.7691231476527584e+08  -1.0763606463533597e+09 8.5221817732302339e-08 4.4300532880868298e-08 8.5221817732302339e-08 -1.5617181596739274e+08 -4.3526256091260500e+07 4.4300532880868298e-08 -4.3526256091260500e+07 -3.7182406810479492e+08  -1.0758953344448392e+09 8.5252857208644835e-08 4.4157358264450732e-08 8.5252857208644835e-08 -1.5538715888030380e+08 -4.4807155479345441e+07 4.4157358264450732e-08 -4.4807155479345441e+07 -3.7034158659751314e+08  -1.0716950844561195e+09 8.5438453458859892e-08 4.3009804148551033e-08 8.5438453458859892e-08 -1.4801100330311099e+08 -5.3484028528447792e+07 4.3009804148551033e-08 -5.3484028528447792e+07 -3.5688088086979109e+08  -1.0711431444464962e+09 8.5555621763576356e-08 4.2971669109793376e-08 8.5555621763576356e-08 -1.4699335033360425e+08 -5.5732399892610826e+07 4.2971669109793376e-08 -5.5732399892610826e+07 -3.5719137562431836e+08  -1.0709130630411069e+09 8.5695051421887140e-08 4.3083271362377351e-08 8.5695051421887140e-08 -1.4651584263498399e+08 -5.7351431421774879e+07 4.3083271362377351e-08 -5.7351431421774879e+07 -3.5921716209206384e+08  -1.0720711604000930e+09 8.5825143402437614e-08 4.3644368150257532e-08 8.5825143402437614e-08 -1.4843546390593323e+08 -5.6343814414906465e+07 4.3644368150257532e-08 -5.6343814414906465e+07 -3.6658466332858223e+08  -1.0715859021955043e+09 8.5811733519605094e-08 4.3452193247992417e-08 8.5811733519605094e-08 -1.4762712312368360e+08 -5.6935695594755970e+07 4.3452193247992417e-08 -5.6935695594755970e+07 -3.6400440891492814e+08  -1.0771360273541737e+09 8.5699692944240990e-08 4.5308298722179226e-08 8.5699692944240990e-08 -1.5726046527018332e+08 -4.5243818460645132e+07 4.5308298722179226e-08 -4.5243818460645132e+07 -3.8563725455194587e+08  -1.0778692543717670e+09 8.5658645322025167e-08 4.5570021205657966e-08 8.5658645322025167e-08 -1.5845272133126852e+08 -4.3399740562276445e+07 4.5570021205657966e-08 -4.3399740562276445e+07 -3.8861226305605614e+08  -1.0780852937000747e+09 8.5628032893959024e-08 4.5615267734994745e-08 8.5628032893959024e-08 -1.5895314944307768e+08 -4.2472893635987848e+07 4.5615267734994745e-08 -4.2472893635987848e+07 -3.8882185068772286e+08  7.5027992553007128e+06 -1.7172393670329827e-08 -3.7519849878522174e-08 -1.7172393670329827e-08 2.0067621351485837e+06 -1.3970057429550537e+08 -3.7519849878522174e-08 -1.3970057429550537e+08 3.1905271084412569e+08  6.8721421185661601e+06 -1.7037681489733686e-08 -3.7883740795628106e-08 -1.7037681489733686e-08 6.4254686567460920e+05 -1.4057716587280387e+08 -3.7883740795628106e-08 -1.4057716587280387e+08 3.2458261881680334e+08  7.6034880323271612e+06 -1.7186887289044961e-08 -3.8019819711930462e-08 -1.7186887289044961e-08 1.9777794316876645e+06 -1.4170707072205532e+08 -3.8019819711930462e-08 -1.4170707072205532e+08 3.2484734181779772e+08  8.1515583329472244e+06 -1.7326497915840758e-08 -3.7614332825178017e-08 -1.7326497915840758e-08 3.2111521073665605e+06 -1.4065256876966405e+08 -3.7614332825178017e-08 -1.4065256876966405e+08 3.1874807099082577e+08  8.0289828212305494e+06 -1.7373094927347628e-08 -3.8099834670776545e-08 -1.7373094927347628e-08 2.7903299996867292e+06 -1.4253803511665997e+08 -3.8099834670776545e-08 -1.4253803511665997e+08 3.2403495723685968e+08  6.8333968762272391e+06 -1.7062548557949129e-08 -3.8398153988299014e-08 -1.7062548557949129e-08 3.5656775677905703e+05 -1.4261937623776561e+08 -3.8398153988299014e-08 -1.4261937623776561e+08 3.3039250174931282e+08  6.1922295169024020e+06 -1.6917605579396575e-08 -3.8208487009836733e-08 -1.6917605579396575e-08 -7.9865706504723802e+05 -1.4107882452103621e+08 -3.8208487009836733e-08 -1.4107882452103621e+08 3.2974462665227711e+08  5.7888811766909808e+06 -1.6754205982286247e-08 -3.8513939101634743e-08 -1.6754205982286247e-08 -1.7311135160760120e+06 -1.4178640682667798e+08 -3.8513939101634743e-08 -1.4178640682667798e+08 3.3490341708888853e+08  6.1502246697360808e+06 -1.6933718656220701e-08 -3.8726582003281464e-08 -1.6933718656220701e-08 -1.0968963905950934e+06 -1.4308189489953148e+08 -3.8726582003281464e-08 -1.4308189489953148e+08 3.3572403855725282e+08  7.3001421890436979e+06 -1.7249396551058964e-08 -3.8514470374495740e-08 -1.7249396551058964e-08 1.2206436462610452e+06 -1.4340375311419532e+08 -3.8514470374495740e-08 -1.4340375311419532e+08 3.3023865574473232e+08  8.7994938475841470e+06 -1.7519750000502910e-08 -3.7692718357852866e-08 -1.7519750000502910e-08 4.4333395239905193e+06 -1.4156096793126664e+08 -3.7692718357852866e-08 -1.4156096793126664e+08 3.1792089338946283e+08  8.6035449494020548e+06 -1.7516165566390116e-08 -3.8294552912944918e-08 -1.7516165566390116e-08 3.8028063814014313e+06 -1.4362578771784222e+08 -3.8294552912944918e-08 -1.4362578771784222e+08 3.2523088231562501e+08  5.3330197767181285e+06 -1.6797670097622757e-08 -3.8986675024607732e-08 -1.6797670097622757e-08 -2.7566509158101412e+06 -1.4350233889636201e+08 -3.8986675024607732e-08 -1.4350233889636201e+08 3.3996762298813879e+08  7.9382820011917995e+06 -1.7413765334050092e-08 -3.8614737726376185e-08 -1.7413765334050092e-08 2.4047067331279260e+06 -1.4434003755594292e+08 -3.8614737726376185e-08 -1.4434003755594292e+08 3.2995558142681849e+08  6.7323548497526320e+06 -1.7101854883313853e-08 -3.8928498641009590e-08 -1.7101854883313853e-08 -5.0392025480094933e+04 -1.4459384385764036e+08 -3.8928498641009590e-08 -1.4459384385764036e+08 3.3637584628809232e+08  4.6923999503313135e+06 -1.6651079753357274e-08 -3.8723128015601609e-08 -1.6651079753357274e-08 -3.8843871615152732e+06 -1.4154416789757812e+08 -3.8723128015601609e-08 -1.4154416789757812e+08 3.3860321930747670e+08  2.9303995941156317e+06 -1.6228223768054649e-08 -3.9080067567805024e-08 -1.6228223768054649e-08 -7.4401143341294033e+06 -1.4096558617678800e+08 -3.9080067567805024e-08 -1.4096558617678800e+08 3.4713277812079203e+08  2.2533006261241613e+06 -1.6091540592935486e-08 -3.908140399