<?xml version="1.0"?>
<VTKFile type="UnstructuredGrid"  version="0.1"  >
<UnstructuredGrid>
<Piece  NumberOfPoints="10101" NumberOfCells="19808">
<Points>
<DataArray  type="Float64"  NumberOfComponents="3"  format="ascii">4.054103932234444e-23 9.668484844120507e-07 4.918726524140444e-08  4.05039329194145e-23 9.667857187595548e-07 4.945872435372525e-08  4.053188850666777e-23 9.669815769229369e-07 4.940278097243381e-08  4.056530826229038e-23 9.671204961754646e-07 4.92406818270239e-08  4.050537333608173e-23 9.669873641351116e-07 4.964739560935038e-08  4.047465830933096e-23 9.667477110252172e-07 4.968439886551487e-08  4.213239664262111e-23 9.665522719745353e-07 3.455738033466632e-08  4.209648610453712e-23 9.663157702113478e-07 3.464433194334632e-08  4.209498419649699e-23 9.664736208813649e-07 3.481571059834312e-08  4.202905465386593e-23 9.669133046878183e-07 3.584923493204844e-08  4.201636568197259e-23 9.667024088588895e-07 3.575263120130086e-08  4.199364101834488e-23 9.667468083613813e-07 3.600171627708436e-08  4.050039254686825e-23 9.666025133057534e-07 4.930740774088382e-08  4.057509323459371e-23 9.668314134701187e-07 4.886346392643973e-08  4.053082723725921e-23 9.666066408352682e-07 4.9037403949791e-08  4.05476916009498e-23 9.671898646041343e-07 4.946872703459145e-08  4.055882787078781e-23 9.665737785238864e-07 4.875233435295812e-08  4.189816144664103e-23 9.66746091735303e-07 3.686100317809993e-08  4.186309200165198e-23 9.665864192159398e-07 3.701720813750625e-08  4.187775385012511e-23 9.667981541501574e-07 3.709688088108365e-08  4.049048778005247e-23 9.663873524526028e-07 4.918146109601478e-08  4.191752959001222e-23 9.666941255283598e-07 3.663458424461811e-08  4.188405836999669e-23 9.665397564065131e-07 3.678169707075058e-08  4.205172578938783e-23 9.66878311362611e-07 3.561003817186411e-08  4.046930647734097e-23 9.665742826594294e-07 4.955917551683886e-08  4.044201047735455e-23 9.665702024906113e-07 4.980095585875582e-08  4.205643681984082e-23 9.664027009498198e-07 3.509199456908776e-08  4.206852570976105e-23 9.662813570108587e-07 3.486176358984652e-08  4.209301297976739e-23 9.66633887663274e-07 3.49937325221101e-08  4.051800373672673e-23 9.663757034788754e-07 4.892197041783749e-08  4.195746733131787e-23 9.665743885783101e-07 3.615512010084401e-08  4.197274292453497e-23 9.667912609159967e-07 3.623440212668986e-08  4.197841076679054e-23 9.665197150948065e-07 3.591180492095931e-08  4.200195011644936e-23 9.664770666525813e-07 3.565713286603009e-08  4.203995345311975e-23 9.666652445683628e-07 3.550300715607644e-08  4.207601929518653e-23 9.668470856784211e-07 3.535999604034919e-08  4.046331650467893e-23 9.663908948616112e-07 4.94297405963181e-08  4.206566192066895e-23 9.666360366051882e-07 3.524223790315209e-08  4.202782051846897e-23 9.664400855788234e-07 3.538713192648125e-08  4.04521314143797e-23 9.661792649673132e-07 4.931885703902746e-08  4.190275988410516e-23 9.664817449342765e-07 3.655523733457365e-08  4.193758748542527e-23 9.666351898508859e-07 3.639498310652801e-08  4.215848158711895e-23 9.665235754557057e-07 3.42937315231958e-08  4.212505158001392e-23 9.66364824043624e-07 3.443609084619648e-08  4.184208854195985e-23 9.666260848296041e-07 3.724605609765657e-08  4.04764691118071e-23 9.661615855195114e-07 4.908196310109549e-08  4.192229614003324e-23 9.664182459386035e-07 3.631577138906483e-08  3.704894367824063e-23 9.291990787123774e-07 4.299186082478721e-08  3.673289655118805e-23 9.281533333411749e-07 4.479281490083575e-08  3.695793890541615e-23 9.298395777971195e-07 4.44520580314918e-08  3.733177242473284e-23 9.304207376921051e-07 4.166602492989096e-08  3.719911778633508e-23 9.308501685530574e-07 4.329030255095743e-08  3.679480328848397e-23 9.300936750042505e-07 4.617555024587617e-08  3.647128412515278e-23 9.283707703360788e-07 4.736664714455544e-08  3.60854246820572e-23 9.267255160493978e-07 4.919690574615976e-08  3.628869553738912e-23 9.287397681309766e-07 4.938025673108233e-08  3.569473611955285e-23 9.255256531259931e-07 5.151605255178011e-08  3.599153402461576e-23 9.277670018348062e-07 5.108408339130184e-08  3.707242103949365e-23 9.31257294709724e-07 4.483861155135233e-08  3.741877039023056e-23 9.317905332045106e-07 4.225221243230138e-08  3.757406067509398e-23 9.31550826968658e-07 4.061377565835848e-08  4.054224029018837e-23 9.663326498325946e-07 4.86606133052795e-08  3.730702632592857e-23 9.322046181779891e-07 4.367279845848248e-08  3.750982852777915e-23 9.330323417870073e-07 4.267384222613236e-08  3.656805010457186e-23 9.299279082023245e-07 4.805219455309339e-08  3.644315920830489e-23 9.30393407828152e-07 4.964261136670062e-08  3.678339018513915e-23 9.311356135728374e-07 4.732028891040466e-08  3.7643431279271e-23 9.327298486952824e-07 4.116796253073864e-08  3.777901601996191e-23 9.326243451412419e-07 3.984122020139273e-08  3.718852053147789e-23 9.325817765811009e-07 4.511736216505286e-08  3.620636372127154e-23 9.295277543621742e-07 5.090982203505562e-08  3.667066206460647e-23 9.314429309203339e-07 4.864297090115151e-08  3.697655528765374e-23 9.318031286366321e-07 4.624792740678801e-08  3.741453695566951e-23 9.335570092476853e-07 4.405681986409939e-08  3.688929112676642e-23 9.323857392896254e-07 4.761654374469122e-08  3.654899159311823e-23 9.317052009691058e-07 5.000115113003628e-08  3.71004433566466e-23 9.331129376999168e-07 4.644185194736896e-08  3.761131738298219e-23 9.341324345790012e-07 4.28598046771769e-08  3.781930829969515e-23 9.336104125707162e-07 4.046436703888197e-08  3.676774035714313e-23 9.327414752448555e-07 4.906711170148544e-08  4.210135011531676e-23 9.668363144449761e-07 3.512106506270518e-08  3.701237325018114e-23 9.336817332467312e-07 4.780391249150402e-08  3.79619500140237e-23 9.336403573041074e-07 3.920950942927813e-08  3.770690654172098e-23 9.337950566037555e-07 4.166143610257781e-08  3.756594550842118e-23 9.347515574835643e-07 4.388760109647212e-08  3.72732188165452e-23 9.336687893160956e-07 4.544148056991156e-08  3.636515246209674e-23 9.308567250648476e-07 5.08085509097071e-08  3.660986291414512e-23 9.328448219182983e-07 5.05924919618403e-08  3.725882365985386e-23 9.344066525204656e-07 4.630900381890362e-08  3.620067801621963e-23 9.306719675347172e-07 5.210524748590491e-08  3.797682897818549e-23 9.344551259662505e-07 3.98902602965118e-08  3.742557577918e-23 9.345886375825174e-07 4.498901931603453e-08  3.771599579619788e-23 9.351526894191682e-07 4.293720019184006e-08  3.786886270103758e-23 9.34514148496711e-07 4.092175659803617e-08  3.641403151854613e-23 9.319397850655769e-07 5.145134750961299e-08  3.676605874579201e-23 9.33566182046378e-07 4.990696511151642e-08  3.777852238115891e-23 9.347411615087459e-07 4.196248287195527e-08  3.768516546434916e-23 9.356348522725495e-07 4.369705798727253e-08  3.689340994730613e-23 9.338176734682654e-07 4.901137888603561e-08  3.716910193579864e-23 9.348061611517237e-07 4.7516653896206e-08  3.624801155747243e-23 9.320069738763048e-07 5.301391118999613e-08  3.688853662305508e-23 9.345508669552003e-07 4.978846737553264e-08  3.649287624924813e-23 9.332712030766621e-07 5.20725953210788e-08  3.800488007977753e-23 9.351939753878112e-07 4.037644785671806e-08  3.670163695739338e-23 9.339220432168551e-07 5.084308616644687e-08  3.780386480327097e-23 9.359502280484935e-07 4.294328516614173e-08  3.702380670533154e-23 9.345883049698551e-07 4.860750080591805e-08  3.734211049656741e-23 9.354442769486117e-07 4.65964471134738e-08  3.792033747367662e-23 9.353364983983071e-07 4.128046296587985e-08  3.630259183841301e-23 9.333816847917965e-07 5.389700663967623e-08  3.810879883206638e-23 9.352131930131312e-07 3.945964857386831e-08  3.744319687968098e-23 9.353987818751668e-07 4.564044684538382e-08  3.785005420553027e-23 9.356095889675505e-07 4.218660893559195e-08  3.778114814646154e-23 9.363585342088862e-07 4.355620478081861e-08  3.714363991160391e-23 9.353422159613821e-07 4.828205023121538e-08  3.680909202960643e-23 9.348971861744073e-07 5.085035987764338e-08  3.756552420625857e-23 9.354587668791478e-07 4.459860524458068e-08  3.812399189810906e-23 9.358409673547539e-07 3.995057594235408e-08  3.665460241506309e-23 9.345066347443517e-07 5.185132718856792e-08  3.650953765965863e-23 9.342376156032894e-07 5.288893520427381e-08  3.787952524577489e-23 9.366423637429128e-07 4.295393217922643e-08  3.72625957465888e-23 9.356216571712254e-07 4.749003253283561e-08  3.797465719551893e-23 9.361138418374986e-07 4.156853784697562e-08  3.791828017035121e-23 9.363656454246165e-07 4.232814053316874e-08  3.695616421915901e-23 9.354699441368057e-07 5.00984093239107e-08  3.759403050128077e-23 9.3619778459691e-07 4.508086108306354e-08  3.821380520964545e-23 9.35882376151544e-07 3.918301834640778e-08  3.768493771901191e-23 9.362306989122621e-07 4.429495597461709e-08  3.804767122261425e-23 9.359465389478015e-07 4.074358306684002e-08  3.704271533601226e-23 9.35326589604151e-07 4.91754716360384e-08  3.647965769486686e-23 9.34956524688344e-07 5.387697908593248e-08  3.738930728257247e-23 9.361451572908592e-07 4.687221659999026e-08  3.74943906268471e-23 9.362709821771635e-07 4.605153486605848e-08  3.732453454459758e-23 9.363169640721263e-07 4.762744433847235e-08  3.688758599246424e-23 9.356496905061926e-07 5.089585344567426e-08  3.785739886404594e-23 9.369440123574251e-07 4.345487752275779e-08  3.771182446873775e-23 9.36843327832681e-07 4.466541058294305e-08  3.821824302604666e-23 9.363413750338055e-07 3.960204493208765e-08  3.664830609614711e-23 9.351915359599346e-07 5.259294060319835e-08  3.778571497086244e-23 9.368809664119602e-07 4.403750268655225e-08  3.716544769916465e-23 9.35982550208176e-07 4.87259573901446e-08  3.742338425858931e-23 9.367488565998516e-07 4.7168977796e-08  3.723066611431025e-23 9.359396519199995e-07 4.809562384167325e-08  3.802718532296704e-23 9.368206243702561e-07 4.180218906932963e-08  3.797999073612487e-23 9.370400030560735e-07 4.244665880257957e-08  3.794144267639824e-23 9.372943018451553e-07 4.304816764650276e-08  3.831663492303966e-23 9.361226557200345e-07 3.84970
[...]
<PointData  Tensors="f_58"> 
<DataArray  type="Float64"  Name="f_58"  NumberOfComponents="9" format="ascii">-1.1181003978411609e-02 9.7256021163972920e-19 -4.0836393909447106e-19 9.7256021163972920e-19 6.3682827802621425e-03 1.0611504174010162e-04 -4.0836393909447106e-19 1.0611504174010162e-04 -3.6415426909104406e-03  -1.1181424808385713e-02 9.7259498366048398e-19 -4.0922659272875083e-19 9.7259498366048398e-19 6.3656349722439470e-03 9.5981140641012902e-05 -4.0922659272875083e-19 9.5981140641012902e-05 -3.6438377616557489e-03  -1.1180872240583365e-02 9.7330117197726345e-19 -4.0817680332458950e-19 9.7330117197726345e-19 6.3778595505056268e-03 1.0051799691619234e-04 -4.0817680332458950e-19 1.0051799691619234e-04 -3.6520732586800921e-03  -1.1181651539432479e-02 9.7346886889249119e-19 -4.0711801245249873e-19 9.7346886889249119e-19 6.3845749852019882e-03 1.0881636625897783e-04 -4.0711801245249873e-19 1.0881636625897783e-04 -3.6598030740394049e-03  -1.1180671053769868e-02 9.7336751793380708e-19 -4.0877003125215236e-19 9.7336751793380708e-19 6.3792044728981671e-03 9.3213435957321177e-05 -4.0877003125215236e-19 9.3213435957321177e-05 -3.6557431025678487e-03  -1.1179446135388682e-02 9.7251023824528075e-19 -4.0975314759634737e-19 9.7251023824528075e-19 6.3627760458864046e-03 8.9171154603514063e-05 -4.0975314759634737e-19 8.9171154603514063e-05 -3.6426825298417659e-03  -1.1180442364291276e-02 9.6358299000431404e-19 -3.9567743132908235e-19 9.6358299000431404e-19 6.2114136414125765e-03 5.6554084121816859e-04 -3.9567743132908235e-19 5.6554084121816859e-04 -2.9549577794927501e-03  -1.1181202162401673e-02 9.6265835317718899e-19 -3.9905510308984597e-19 9.6265835317718899e-19 6.1941588333947646e-03 5.4180578696466912e-04 -3.9905510308984597e-19 5.4180578696466912e-04 -2.9425027273480928e-03  -1.1180851282476017e-02 9.6310971472287252e-19 -3.9696316400211148e-19 9.6310971472287252e-19 6.2060014465818263e-03 5.4921921556851485e-04 -3.9696316400211148e-19 5.4921921556851485e-04 -2.9683707411040671e-03  -1.1181262425244838e-02 9.6459696917240722e-19 -3.9122412856402687e-19 9.6459696917240722e-19 6.2458457551381567e-03 5.5432052010385730e-04 -3.9122412856402687e-19 5.5432052010385730e-04 -3.0754280032315477e-03  -1.1180888891682464e-02 9.6373974482996603e-19 -3.9413972279681460e-19 9.6373974482996603e-19 6.2285496330307328e-03 5.3848783349921196e-04 -3.9413972279681460e-19 5.3848783349921196e-04 -3.0519698917221803e-03  -1.1181271389511704e-02 9.6394358373583623e-19 -3.9368086767677534e-19 9.6394358373583623e-19 6.2341072407225886e-03 5.3392778224838479e-04 -3.9368086767677534e-19 5.3392778224838479e-04 -3.0720065612911979e-03  -1.1180856773653070e-02 9.7198804925060121e-19 -4.0963109516072284e-19 9.7198804925060121e-19 6.3548691671666512e-03 9.8640891843935254e-05 -4.0963109516072284e-19 9.8640891843935254e-05 -3.6302630750276342e-03  -1.1181355164398702e-02 9.7237957087666048e-19 -4.0768676785544156e-19 9.7237957087666048e-19 6.3657000076943263e-03 1.1545747191302832e-04 -4.0768676785544156e-19 1.1545747191302832e-04 -3.6364303972231896e-03  -1.1181068095784586e-02 9.7183089356718864e-19 -4.0907620026687917e-19 9.7183089356718864e-19 6.3543847934129970e-03 1.0648433235252391e-04 -4.0907620026687917e-19 1.0648433235252391e-04 -3.6273416273778325e-03  -1.1181133454615758e-02 9.7387512261412147e-19 -4.0748445722460594e-19 9.7387512261412147e-19 6.3909293174169053e-03 1.0202836169161103e-04 -4.0748445722460594e-19 1.0202836169161103e-04 -3.6647775471583266e-03  -1.1181104803096045e-02 9.7152602136202129e-19 -4.0873264442905707e-19 9.7152602136202129e-19 6.3504519526574694e-03 1.1412128880681765e-04 -4.0873264442905707e-19 1.1412128880681765e-04 -3.6198893295088337e-03  -1.1180795206786352e-02 9.6387387153628565e-19 -3.9409524117919140e-19 9.6387387153628565e-19 6.2415310972451250e-03 5.0525843439087415e-04 -3.9409524117919140e-19 5.0525843439087415e-04 -3.1296078820096510e-03  -1.1180590322763431e-02 9.6328092896758673e-19 -3.9621218210465087e-19 9.6328092896758673e-19 6.2310012765467264e-03 4.8733625542230543e-04 -3.9621218210465087e-19 4.8733625542230543e-04 -3.1270587374810630e-03  -1.1181519876884790e-02 9.6411944292353041e-19 -3.9366985155562628e-19 9.6411944292353041e-19 6.2471310500850112e-03 5.0113979891880552e-04 -3.9366985155562628e-19 5.0113979891880552e-04 -3.1481337633607652e-03  -1.1181043182013375e-02 9.7123922816190866e-19 -4.1042397671296497e-19 9.7123922816190866e-19 6.3420524361741688e-03 9.8157636636381053e-05 -4.1042397671296497e-19 9.8157636636381053e-05 -3.6179919484249628e-03  -1.1181022690259777e-02 9.6373455718904913e-19 -3.9467137084826403e-19 9.6373455718904913e-19 6.2355033478867705e-03 5.0807720737297633e-04 -3.9467137084826403e-19 5.0807720737297633e-04 -3.1105285883474307e-03  -1.1181392194530770e-02 9.6323311493772037e-19 -3.9668552100813163e-19 9.6323311493772037e-19 6.2267399888350609e-03 4.9104539914191295e-04 -3.9668552100813163e-19 4.9104539914191295e-04 -3.1093173312144438e-03  -1.1181359008852719e-02 9.6451496011800713e-19 -3.9156406882493360e-19 9.6451496011800713e-19 6.2416005016621371e-03 5.5961187433876643e-04 -3.9156406882493360e-19 5.5961187433876643e-04 -3.0561467329586244e-03  -1.1182097306982306e-02 9.7214703998479201e-19 -4.1041069561045681e-19 9.7214703998479201e-19 6.3549715826546737e-03 9.0253385792383829e-05 -4.1041069561045681e-19 9.0253385792383829e-05 -3.6327134136559351e-03  -1.1182391066476853e-02 9.7242970872518817e-19 -4.1103814544190251e-19 9.7242970872518817e-19 6.3565062662540210e-03 8.1579463171381754e-05 -4.1103814544190251e-19 8.1579463171381754e-05 -3.6357882228412316e-03  -1.1181483324063381e-02 9.6278311504165099e-19 -3.9808127145069642e-19 9.6278311504165099e-19 6.2016871157092573e-03 5.3341923961731919e-04 -3.9808127145069642e-19 5.3341923961731919e-04 -2.9826619089693344e-03  -1.1181454570100094e-02 9.6229105254131892e-19 -3.9965695358730858e-19 9.6229105254131892e-19 6.1919279159111532e-03 5.3130150378709773e-04 -3.9965695358730858e-19 5.3130150378709773e-04 -2.9575599169411925e-03  -1.1180907307367956e-02 9.6357343987368746e-19 -3.9476906704930908e-19 9.6357343987368746e-19 6.2173057574486804e-03 5.5806177895016966e-04 -3.9476906704930908e-19 5.5806177895016966e-04 -2.9932735822024705e-03  -1.1181037123398220e-02 9.7107637370459001e-19 -4.0995939554923082e-19 9.7107637370459001e-19 6.3396223555354072e-03 1.0531503233411544e-04 -4.0995939554923082e-19 1.0531503233411544e-04 -3.6125378344771162e-03  -1.1181112657582025e-02 9.6335273156855766e-19 -3.9590529389683668e-19 9.6335273156855766e-19 6.2234996810524527e-03 5.1468045346511658e-04 -3.9590529389683668e-19 5.1468045346511658e-04 -3.0701483413407360e-03  -1.1180960251609022e-02 9.6410808005342235e-19 -3.9308472830529385e-19 9.6410808005342235e-19 6.2396607380942430e-03 5.3014203911647378e-04 -3.9308472830529385e-19 5.3014203911647378e-04 -3.0922850591096644e-03  -1.1181002328539410e-02 9.6318989916012703e-19 -3.9650127287083523e-19 9.6318989916012703e-19 6.2178802286796328e-03 5.1814305107643777e-04 -3.9650127287083523e-19 5.1814305107643777e-04 -3.0495801608208624e-03  -1.1181048406877220e-02 9.6302593652444941e-19 -3.9704862055609825e-19 9.6302593652444941e-19 6.2123986305485821e-03 5.2249983519899346e-04 -3.9704862055609825e-19 5.2249983519899346e-04 -3.0285707000499598e-03  -1.1181190389385842e-02 9.6366437980326772e-19 -3.9452630493750868e-19 9.6366437980326772e-19 6.2241171669928505e-03 5.4392891115794971e-04 -3.9452630493750868e-19 5.4392891115794971e-04 -3.0316518766580537e-03  -1.1180631673223477e-02 9.6431943789775960e-19 -3.9183932978625593e-19 9.6431943789775960e-19 6.2368628813864631e-03 5.6563144347694400e-04 -3.9183932978625593e-19 5.6563144347694400e-04 -3.0364788576906698e-03  -1.1181557387760912e-02 9.7147336482307850e-19 -4.1095842610863257e-19 9.7147336482307850e-19 6.3436159054912180e-03 9.0820983361201456e-05 -4.1095842610863257e-19 9.0820983361201456e-05 -3.6214115202713301e-03  -1.1180791385919804e-02 9.6352029080314281e-19 -3.9469685611556639e-19 9.6352029080314281e-19 6.2197118169412865e-03 5.5118379893458376e-04 -3.9469685611556639e-19 5.5118379893458376e-04 -3.0114620439077862e-03  -1.1180962017151359e-02 9.6288148730332675e-19 -3.9762661606287531e-19 9.6288148730332675e-19 6.2075039303447167e-03 5.2746076995291360e-04 -3.9762661606287531e-19 5.2746076995291360e-04 -3.0057712753262388e-03  -1.1181026305121697e-02 9.7080925452898660e-19 -4.1161930193608373e-19 9.7080925452898660e-19 6.3318617733120162e-03 9.0557310032795735e-05 -4.1161930193608373e-19 9.0557310032795735e-05 -3.6091808364422961e-03  -1.1181141950574330e-02 9.6307071016152832e-19 -3.9732859369162367e-19 9.6307071016152832e-19 6.2200722820909540e-03 4.9296852973237525e-04 -3.9732859369162367e-19 4.9296852973237525e-04 -3.0896439321383452e-03  -1.1181607806344980e-02 9.6357196877629316e-19 -3.9531710914444156e-19 9.6357196877629316e-19 6.2294817810610503e-03 5.1131669042534769e-04 -3.9531710914444156e-19 5.1131669042534769e-04 -3.0904946330450613e-03  -1.1179023803935616e-02 9.6346533990760128e-19 -3.9580279546945070e-19 9.6346533990760128e-19 6.2047056890507952e-03 5.7067670254099499e-04 -3.9580279546945070e-19 5.7067670254099499e-04 -2.9350020199186253e-03  -1.1182011785192434e-02 9.6316804577931513e-19 -3.9854208841261396e-19 9.6316804577931513e-19 6.1966383207269519e-03 5.4862819417285662e-04 -3.9854208841261396e-19 5.4862819417285662e-04 -2.9330164910320250e-03  -1.1180842362052766e-02 9.6348149583029031e-19 -3.9579158139871766e-19 9.6348149583029031e-19 6.2361021833285575e-03 4.8309974537182147e-04 -3.9579158139871766e-19 4.8309974537182147e-04 -3.1451005202797660e-03  -1.1181078667439399e-02 9.7059731983968697e-19 -4.1121955949854460e-19 9.7059731983968697e-19 6.3291903429817066e-03 9.7157935199043984e-05 -4.1121955949854460e-19 9.7157935199043984e-05 -3.6044318759349140e-03  -1.1180843807618248e-02 9.6271542174837920e-19 -3.9814405993296070e-19 9.6271542174837920e-19 6.2127354329172390e-03 4.9513362493744742e-04 -3.9814405993296070e-19 4.9513362493744742e-04 -3.0690907798620885e-03  1.4876510614036805e-16 -1.3949743328612786e-19 -3.0953740159740080e-19 -1.3949743328612786e-19 -2.2303975711868954e-03 -7.0073459023546906e-04 -3.0953740159740080e-19 -7.0073459023546906e-04 3.8920961424151893e-03  -8.4264217377238632e-16 -1.2847760017050842e-19 -2.8021972387207623e-19 -1.2847760017050842e-19 -2.0707126953879162e-03 -5.3348652414724786e-04 -2.8021972387207623e-19 -5.3348652414724786e-04 3.7372827341269291e-03  3.0706720288667267e-15 -1.4449354880298571e-19 -3.0587471600049630e-19 -1.4449354880298571e-19 -2.3609681791560704e-03 -5.8615863084185253e-04 -3.0587471600049630e-19 -5.8615863084185253e-04 4.0958355752998901e-03  7.3470986196153404e-15 -1.4607667131610778e-19 -3.3257230099872429e-19 -1.4607667131610778e-19 -2.3546928423138400e-03 -8.1928214739165374e-04 -3.3257230099872429e-19 -8.1928214739165374e-04 4.0757351409246509e-03  -1.0478011791459635e-14 -1.4849764999286159e-19 -3.2457966186496479e-19 -1.4849764999286159e-19 -2.4641107434939069e-03 -7.1166260199002191e-04 -3.2457966186496479e-19 -7.1166260199002191e-04 4.2127970717082824e-03  3.7282224060352269e-15 -1.4305131345328375e-19 -2.8899791101949177e-19 -1.4305131345328375e-19 -2.4145626799801896e-03 -4.8215708741481062e-04 -2.8899791101949177e-19 -4.8215708741481062e-04 4.0793886748187042e-03  -1.3275559388713094e-16 -1.2669189397621342e-19 -2.6192938854475743e-19 -1.2669189397621342e-19 -2.1625733640361542e-03 -3.8755143888712052e-04 -2.6192938854475743e-19 -3.8755143888712052e-04 3.8236926068432723e-03  -4.5399945125900185e-17 -1.1636120296329192e-19 -2.3232514813074750e-19 -1.1636120296329192e-19 -1.9750782244249221e-03 -2.2978206189243523e-04 -2.3232514813074750e-19 -2.2978206189243523e-04 3.6045348216181728e-03  1.3301307401760981e-15 -1.3072304020838984e-19 -2.5016346767419522e-19 -1.3072304020838984e-19 -2.2685643878839418e-03 -2.3351162963179662e-04 -2.5016346767419522e-19 -2.3351162963179662e-04 3.9531885871348657e-03  2.3060858147797017e-16 -1.0123041899094042e-19 -1.9531359594117170e-19 -1.0123041899094042e-19 -1.7737867986562543e-03 -4.7828895123993526e-05 -1.9531359594117170e-19 -4.7828895123993526e-05 3.3729808510283331e-03  -1.3094622932433890e-15 -1.2349685606470612e-19 -2.2492473395386440e-19 -1.2349685606470612e-19 -2.1378127119994982e-03 -7.7873421059447716e-05 -2.2492473395386440e-19 -7.7873421059447716e-05 3.8092280821444128e-03  -1.0669230042070700e-14 -1.5451375837952280e-19 -3.1341798743557661e-19 -1.5451375837952280e-19 -2.5914088235306182e-03 -5.8432342024233451e-04 -3.1341798743557661e-19 -5.8432342024233451e-04 4.2853260900823226e-03  -4.0232452694127157e-14 -1.5634258143580986e-19 -3.4311677155895160e-19 -1.5634258143580986e-19 -2.6069256475290199e-03 -8.0964661586956023e-04 -3.4311677155895160e-19 -8.0964661586956023e-04 4.3522571078734697e-03  1.9661363363118519e-15 -1.5473583657805850e-19 -3.5399057737173833e-19 -1.5473583657805850e-19 -2.5053137505828215e-03 -9.2163677052863123e-04 -3.5399057737173833e-19 -9.2163677052863123e-04 4.2514945150904301e-03  -1.1181187756397131e-02 9.7077664825394597e-19 -4.0964365723727063e-19 9.7077664825394597e-19 6.3362724107688638e-03 1.1259657176367885e-04 -4.0964365723727063e-19 1.1259657176367885e-04 -3.6060132863369523e-03  1.0986353338497835e-13 -1.6143134545382990e-19 -3.3306128851439037e-19 -1.6143134545382990e-19 -2.7228195554258928e-03 -6.8294968952640968e-04 -3.3306128851439037e-19 -6.8294968952640968e-04 4.4487303670454276e-03  7.5106065262587514e-14 -1.6600532454177346e-19 -3.5096632957694765e-19 -1.6600532454177346e-19 -2.8265005086130098e-03 -7.8520010650178461e-04 -3.5096632957694765e-19 -7.8520010650178461e-04 4.5880615491776036e-03  -4.1890227102151175e-15 -1.3734598184133133e-19 -2.7082640548005303e-19 -1.3734598184133133e-19 -2.4228513682738062e-03 -3.4790454204232206e-04 -2.7082640548005303e-19 -3.4790454204232206e-04 4.1316118288231320e-03  -8.8682932676672490e-15 -1.4342641898330139e-19 -2.6164622854286149e-19 -1.4342641898330139e-19 -2.5295198833238013e-03 -2.1653464889305436e-04 -2.6164622854286149e-19 -2.1653464889305436e-04 4.2261093466409699e-03  9.9339624930330043e-15 -1.5102363466879435e-19 -2.8753943120176484e-19 -1.5102363466879435e-19 -2.6411469676014894e-03 -3.9657290318296785e-04 -2.8753943120176484e-19 -3.9657290318296785e-04 4.3072511228397720e-03  7.6582510558942765e-14 -1.6299869060748094e-19 -3.6046686642694609e-19 -1.6299869060748094e-19 -2.7272801782069461e-03 -8.9585275701742708e-04 -3.6046686642694609e-19 -8.9585275701742708e-04 4.4928450764775696e-03  -4.6653894726009335e-14 -1.6218849813845144e-19 -3.7154488418504649e-19 -1.6218849813845144e-19 -2.6534162773523958e-03 -1.0009324014609107e-03 -3.7154488418504649e-19 -1.0009324014609107e-03 4.4229808430855735e-03  -6.5723721280381624e-15 -1.6417161044863074e-19 -3.2547546136207804e-19 -1.6417161044863074e-19 -2.8405130509606088e-03 -5.8684200507569937e-04 -3.2547546136207804e-19 -5.8684200507569937e-04 4.5726208922649975e-03  5.3683385448880656e-15 -1.3828062375170491e-19 -2.4392956340351986e-19 -1.3828062375170491e-19 -2.4148668606187788e-03 -1.0654264986986838e-04 -2.4392956340351986e-19 -1.0654264986986838e-04 4.1049836618818249e-03  2.4661425939828014e-14 -1.5070095734794156e-19 -2.7903450803024495e-19 -1.5070095734794156e-19 -2.6769531817581972e-03 -3.0371155836856798e-04 -2.7903450803024495e-19 -3.0371155836856798e-04 4.3813817891981115e-03  -2.8784973376994903e-14 -1.5871991426928752e-19 -3.0801658946096259e-19 -1.5871991426928752e-19 -2.7497789384722114e-03 -4.8172783554794040e-04 -3.0801658946096259e-19 -4.8172783554794040e-04 4.4758130703624038e-03  -6.7050940332887599e-13 -1.7188575438493096e-19 -3.4250733609837031e-19 -1.7188575438493096e-19 -2.9752266905263207e-03 -6.6925890932951614e-04 -3.4250733609837031e-19 -6.6925890932951614e-04 4.7103540378303083e-03  -5.2099164478165607e-14 -1.6264094148894082e-19 -2.9924851553848804e-19 -1.6264094148894082e-19 -2.8515872163971173e-03 -3.8357590449795466e-04 -2.9924851553848804e-19 -3.8357590449795466e-04 4.5453386856391196e-03  5.2924577373233198e-14 -1.5374560198210769e-19 -2.7036846580499182e-19 -1.5374560198210769e-19 -2.7462718973771828e-03 -1.9466895871079849e-04 -2.7036846580499182e-19 -1.9466895871079849e-04 4.4578247242839635e-03  2.4306525435244129e-13 -1.6934145597758625e-19 -3.1769947103182164e-19 -1.6934145597758625e-19 -2.9529694854625596e-03 -4.8114478607912131e-04 -3.1769947103182164e-19 -4.8114478607912131e-04 4.6632603190531361e-03  4.1543276534497822e-13 -1.7589441934625568e-19 -3.5851179498254811e-19 -1.7589441934625568e-19 -3.0484538860969311e-03 -7.7169433577604603e-04 -3.5851179498254811e-19 -7.7169433577604603e-04 4.7948073948436516e-03  -1.9775599984504979e-13 -1.6978409266376104e-19 -3.7591783242587692e-19 -1.6978409266376104e-19 -2.8591481687002345e-03 -9.6508337941765771e-04 -3.7591783242587692e-19 -9.6508337941765771e-04 4.6423567437939954e-03  -1.5084116218732238e-13 -1.6319641648538798e-19 -2.8938323597421259e-19 -1.6319641648538798e-19 -2.9160124585517742e-03 -2.7950086206570649e-04 -2.8938323597421259e-19 -2.7950086206570649e-04 4.6301903870343934e-03  -1.1181020647184863e-02 9.6436981297296723e-19 -3.9193204545547931e-19 9.6436981297296723e-19 6.2347226706704582e-03 5.7310342497903324e-04 -3.9193204545547931e-19 5.7310342497903324e-04 -3.0175949381978139e-03  2.1513089902319212e-13 -1.7363401787386770e-19 -3.1086870154644018e-19 -1.7363401787386770e-19 -3.0785189219618854e-03 -3.8335411156465365e-04 -3.1086870154644018e-19 -3.8335411156465365e-04 4.7840109802632898e-03  3.3587129065254319e-13 -1.6989242408528493e-19 -3.8700633058474583e-19 -1.6989242408528493e-19 -2.8100246935390057e-03 -1.0589172985584114e-03 -3.8700633058474583e-19 -1.0589172985584114e-03 4.6033665307256269e-03  -3.2555896634848055e-13 -1.7162311877354937e-19 -3.6659180504926945e-19 -1.7162311877354937e-19 -2.9283998576211481e-03 -8.7344208516042699e-04 -3.6659180504926945e-19 -8.7344208516042699e-04 4.6937592980902196e-03  4.2049018976140111e-12 -1.8132923701277270e-19 -3.5486949567291901e-19 -1.8132923701277270e-19 -3.1727397422983954e-03 -6.8552676451939321e-04 -3.5486949567291901e-19 -6.8552676451939321e-04 4.9279095986117490e-03  4.9564724122636771e-13 -1.7262561251666508e-19 -3.3210732991710271e-19 -1.7262561251666508e-19 -3.0334279868155720e-03 -5.7016661870191131e-04 -3.3210732991710271e-19 -5.7016661870191131e-04 4.7660619626310723e-03  -1.9597752632285420e-14 -1.4910545415152345e-19 -2.5636339853258512e-19 -1.4910545415152345e-19 -2.6292146530178142e-03 -1.1569718728619114e-04 -2.5636339853258512e-19 -1.1569718728619114e-04 4.3300076317945614e-03  -2.1599521200894782e-13 -1.6293262705234187e-19 -2.7551692518853497e-19 -1.6293262705234187e-19 -2.9151946203149412e-03 -1.4641049337674476e-04 -2.7551692518853497e-19 -1.4641049337674476e-04 4.6505120456651556e-03  -2.0314922082680813e-12 -1.7934740868726543e-19 -3.3046876675588710e-19 -1.7934740868726543e-19 -3.1648514564722482e-03 -4.9458700447330627e-04 -3.3046876675588710e-19 -4.9458700447330627e-04 4.8980378110048562e-03  -1.6582862916641714e-14 -1.4830791767863327e-19 -2.4252223270989279e-19 -1.4830791767863327e-19 -2.6097673032642070e-03 -8.2455905118377074e-06 -2.4252223270989279e-19 -8.2455905118377074e-06 4.2904903384783670e-03  -1.7878865017144975e-15 -1.7624279912462186e-19 -3.8852741442746537e-19 -1.7624279912462186e-19 -2.9838901826434693e-03 -1.0148999126663803e-03 -3.8852741442746537e-19 -1.0148999126663803e-03 4.7782700148045459e-03  -1.1900567588143088e-13 -1.8023979615638964e-19 -3.4378848172630607e-19 -1.8023979615638964e-19 -3.1603298215852893e-03 -6.0577550583395992e-04 -3.4378848172630607e-19 -6.0577550583395992e-04 4.8950100072377017e-03  -7.2671500600004381e-12 -1.8314358349212920e-19 -3.6746942156759876e-19 -1.8314358349212920e-19 -3.2118275964382850e-03 -7.7467054041557024e-04 -3.6746942156759876e-19 -7.7467054041557024e-04 4.9830056037587231e-03  1.3193379270440872e-