<?xml version="1.0"?>
<VTKFile type="UnstructuredGrid"  version="0.1"  >
<UnstructuredGrid>
<Piece  NumberOfPoints="10268" NumberOfCells="20038">
<Points>
<DataArray  type="Float64"  NumberOfComponents="3"  format="ascii">4.399996584658672e-23 9.999999999999972e-07 5.118354041799195e-08  4.40123523688283e-23 9.999999999999972e-07 5.107197254408878e-08  4.399501869654966e-23 9.998977161647241e-07 5.112581654884574e-08  4.400667976925973e-23 9.998952087812739e-07 5.101827555997193e-08  4.398770003190948e-23 9.999999999999972e-07 5.129402105481163e-08  4.398294676907132e-23 9.998990622437235e-07 5.123589688403138e-08  4.397586538647746e-23 9.999999999999972e-07 5.140061806432701e-08  4.397097074302434e-23 9.998983116075069e-07 5.134301670069986e-08  4.396405120030225e-23 9.999999999999972e-07 5.150703079323971e-08  4.395820454886629e-23 9.998965810266137e-07 5.145627377431298e-08  4.395220637995988e-23 9.999999999999972e-07 5.16137194502001e-08  4.394622315168714e-23 9.998960631645236e-07 5.156367474396566e-08  4.394040236869503e-23 9.999999999999972e-07 5.172004053166779e-08  4.3934829345483e-23 9.99895126730902e-07 5.166536459309472e-08  4.392802737910274e-23 9.999999999999972e-07 5.18315045287009e-08  4.392284138828567e-23 9.998949804206509e-07 5.177319620197722e-08  4.391595680988776e-23 9.999999999999972e-07 5.194022655073833e-08  4.391018184227892e-23 9.998945955130643e-07 5.188683834774797e-08  4.390406737914057e-23 9.999999999999972e-07 5.204731702250371e-08  4.389854913511445e-23 9.998956349450099e-07 5.199265589099601e-08  4.389206039109145e-23 9.999999999999972e-07 5.215546635631141e-08  4.388593318456127e-23 9.998950869580444e-07 5.210574228445084e-08  4.388005340304234e-23 9.999999999999972e-07 5.22636156901191e-08  4.387383493227716e-23 9.998951321773648e-07 5.221475887272843e-08  4.38683146666146e-23 9.999999999999972e-07 5.236934882812269e-08  4.386231215590716e-23 9.998952402649503e-07 5.231865490304631e-08  4.385639439652475e-23 9.999999999999972e-07 5.247671707599219e-08  4.385060041679764e-23 9.99894981627538e-07 5.242388623341298e-08  4.384295973277542e-23 9.999999999999972e-07 5.259772576930288e-08  4.383841291296222e-23 9.99895420570884e-07 5.253410045222258e-08  4.383118056305356e-23 9.999999999999972e-07 5.270382309804318e-08  4.382566575063462e-23 9.998937309115886e-07 5.264722702394441e-08  4.38195283872793e-23 9.999999999999972e-07 5.280877656699312e-08  4.381445488507661e-23 9.998966177747839e-07 5.275109238703879e-08  4.380754243855785e-23 9.999999999999972e-07 5.291673639538436e-08  4.380261601075234e-23 9.998989794814738e-07 5.28600891937193e-08  4.379553545050873e-23 9.999999999999972e-07 5.302488572919205e-08  4.379011213041468e-23 9.998964489012041e-07 5.297018355510829e-08  4.37838828998391e-23 9.999999999999972e-07 5.312984257489936e-08  4.377815965922585e-23 9.99896748561136e-07 5.307814150462461e-08  4.377223072406485e-23 9.999999999999972e-07 5.32347960438493e-08  4.376610164467137e-23 9.998957691977756e-07 5.318577108097287e-08  4.376023406823188e-23 9.999999999999972e-07 5.334285231332744e-08  4.375483617415713e-23 9.99897577167686e-07 5.32890493885035e-08  4.374857240705421e-23 9.999999999999972e-07 5.344789121919595e-08  4.374317027073759e-23 9.998968777195138e-07 5.339342705691758e-08  4.373658523662465e-23 9.999999999999972e-07 5.355586205175553e-08  4.373135129083259e-23 9.998971318222213e-07 5.350013706661717e-08  4.372491340053663e-23 9.999999999999972e-07 5.366099260506903e-08  4.371915440417266e-23 9.998973283315533e-07 5.361019336438274e-08  4.371282951678745e-23 9.999999999999972e-07 5.376983455376905e-08  4.370756040841007e-23 9.998979087345916e-07 5.371520319741329e-08  4.370007843665426e-23 9.999999999999972e-07 5.388468607324185e-08  4.369505413537689e-23 9.998954320970322e-07 5.382537305299794e-08  4.368814636615144e-23 9.999999999999972e-07 5.399216060978234e-08  4.368253500736285e-23 9.998970671602864e-07 5.39397703967702e-08  4.367641943013667e-23 9.999999999999972e-07 5.409778745911495e-08  4.367044179136349e-23 9.998961212803427e-07 5.404775052296332e-08  4.366419427963032e-23 9.999999999999972e-07 5.420790182564484e-08  4.365854311404894e-23 9.998969670153525e-07 5.415577001541322e-08  4.36517041515112e-23 9.999999999999972e-07 5.432040289833102e-08  4.364599047932945e-23 9.998951629160528e-07 5.426702999820391e-08  4.363962599862986e-23 9.999999999999972e-07 5.442919322796256e-08  4.363383292810976e-23 9.998929640708516e-07 5.437433663928821e-08  4.362725859270394e-23 9.999999999999972e-07 5.454058891740155e-08  4.362155905210076e-23 9.998928903082283e-07 5.448481612350589e-08  4.361545245348412e-23 9.999999999999972e-07 5.46469291657837e-08  4.3609497423983e-23 9.998956906052594e-07 5.459625790833029e-08  4.360302423955106e-23 9.999999999999972e-07 5.475887256505931e-08  4.359749515058286e-23 9.998970602634026e-07 5.470573443449844e-08  4.358959765782629e-23 9.999999999999972e-07 5.487980846196438e-08  4.358457494344072e-23 9.998960758896446e-07 5.482112494088228e-08  4.357733110610988e-23 9.999999999999972e-07 5.49902957374426e-08  4.357256139021757e-23 9.998944902980081e-07 5.4927747816884e-08  4.356542453815241e-23 9.999999999999972e-07 5.509754056747561e-08  4.356038849447614e-23 9.998944066063532e-07 5.50373078226794e-08  4.355368227450266e-23 9.999999999999972e-07 5.520330547587069e-08  4.354786075757863e-23 9.998950888610669e-07 5.515082989983996e-08  4.354176553163483e-23 9.999999999999972e-07 5.53106419533487e-08  4.353622462293866e-23 9.998966060695396e-07 5.525715609156995e-08  4.352905374892759e-23 9.999999999999972e-07 5.542513951307582e-08  4.352435067290067e-23 9.998982439968119e-07 5.536574505277524e-08  4.351724005986242e-23 9.999999999999972e-07 5.553154776441936e-08  4.351116820230134e-23 9.998945390308095e-07 5.548077722613069e-08  4.350558788408817e-23 9.999999999999972e-07 5.563650123336932e-08  4.34996168712561e-23 9.998964219390762e-07 5.558670527477934e-08  4.349362653081553e-23 9.999999999999972e-07 5.574423952565232e-08  4.348816325393976e-23 9.9989779958144e-07 5.569124793049887e-08  4.348161954276641e-23 9.999999999999972e-07 5.585238885946e-08  4.347599120610076e-23 9.998959682632131e-07 5.57990526724962e-08  4.346994239664797e-23 9.999999999999972e-07 5.595756724127555e-08  4.346378333266684e-23 9.998947787464102e-07 5.590782190418918e-08  4.345796053624883e-23 9.999999999999972e-07 5.60654902453331e-08  4.345251252071651e-23 9.99896740591896e-07 5.601130219867443e-08  4.344503104631498e-23 9.999999999999972e-07 5.618194873742943e-08  4.343954744736803e-23 9.99895693653172e-07 5.612703425895249e-08  4.343166708582817e-23 9.999999999999972e-07 5.630232059236667e-08  4.342664856608964e-23 9.998957984965557e-07 5.624332189617392e-08  4.341993960896625e-23 9.999999999999972e-07 5.640795231321734e-08  4.341394326376485e-23 9.998942787020403e-07 5.635624129128964e-08  4.340771307182061e-23 9.999999999999972e-07 5.65180791694836e-08  4.340251463014519e-23 9.998975480485216e-07 5.646245061799267e-08  4.339522487118792e-23 9.999999999999972e-07 5.663056288091537e-08  4.33897198419211e-23 9.998965219850037e-07 5.65766697614313e-08  4.338314479082013e-23 9.999999999999972e-07 5.673937057180133e-08  4.337795023544442e-23 9.998950830720321e-07 5.668124203914509e-08  4.337077931238066e-23 9.999999999999972e-07 5.685074889998589e-08  4.336553360915576e-23 9.998926608458391e-07 5.679065884000568e-08  4.335897263231368e-23 9.999999999999972e-07 5.695709401988611e-08  4.335310295059921e-23 9.998952792399465e-07 5.690524265259958e-08  4.334713048077343e-23 9.999999999999972e-07 5.7063758638414e-08  4.334115939607527e-23 9.998965845033191e-07 5.701412589137921e-08  4.333446920735971e-23 9.999999999999972e-07 5.717780125087013e-08  4.332907204114578e-23 9.998979285534461e-07 5.712434315581886e-08  4.332199303304536e-23 9.999999999999972e-07 5.729017663885633e-08  4.331703629902139e-23 9.998989156993974e-07 5.723373862926321e-08  4.331034085727111e-23 9.999999999999972e-07 5.739513010780628e-08  4.330505122611391e-23 9.998974254761352e-07 5.734020034576143e-08  4.329790454794813e-23 9.999999999999972e-07 5.750714642387195e-08  4.329310740398688e-23 9.998993381141736e-07 5.744969336956108e-08  4.328564068004505e-23 9.999999999999972e-07 5.761760952570885e-08  4.328010870321477e-23 9.99896285485558e-07 5.756372262885252e-08  4.327389864263087e-23 9.999999999999972e-07 5.772337239635496e-08  4.326793724027283e-23 9.998953512576417e-07 5.767241919287607e-08  4.326198167352746e-23 9.999999999999972e-07 5.783071091158194e-08  4.325620524494303e-23 9.998946296810372e-07 5.777737003586267e-08  4.325024981102365e-23 9.999999999999972e-07 5.793638213478305e-08  4.324413563401428e-23 9.998937761121184e-07 5.788522985750644e-08  4.323832266700988e-23 9.999999999999972e-07 5.804381229745503e-08  4.323253426838707e-23 9.998931565283382e-07 5.798910608555757e-08  4.322558421754925e-23 9.999999999999972e-07 5.815855004994341e-08  4.322033264701949e-23 9.998934492143938e-07 5.809930120650188e-08  4.321348770312751e-23 9.999999999999972e-07 5.826750576562786e-08  4.320817667490978e-23 9.998942866203929e-07 5.82096298754283e-08  4.320181094055043e-23 9.999999999999972e-07 5.837268069280989e-08  4.319599217566443e-23 9.998943431665255e-07 5.831943463408287e-08  4.319015876477618e-23 9.999999999999972e-07 5.847763416175984e-08  4.318457316798612e-23 9.998981261551997e-07 5.842607090020703e-08  4.317736538174317e-23 9.999999999999972e-07 5.859286671188042e-08  4.317253805882517e-23 9.998963968070843e-07 5.853274417835687e-08  4.316571320596892e-23 9.999999999999972e-07 5.869782018083037e-08  4.315913243341051e-23 9.998917566278499e-07 5.864885113836682e-08  4.315405165342038e-23 9.999999999999972e-07 5.880285810825462e-08  4.314741289611107e-23 9.998931742293913e-07 5.875582894753753e-08  4.31419436044324e-23 9.999999999999972e-07 5.891191771807558e-08  4.313567355880596e-23 9.998915115449229e-07 5.885990481329497e-08  4.312857910240788e-23 9.999999999999972e-
[...]
<PointData  Vectors="f_25"> 
<DataArray  type="Float64"  Name="f_25"  NumberOfComponents="3" format="ascii">0.0000000000000000e+00 6.3970806762204097e-10 -4.8805798099119272e-12  0.0000000000000000e+00 6.3971312562034722e-10 -5.3100289983530757e-12  0.0000000000000000e+00 6.3992920292662832e-10 -5.1075457303354336e-12  0.0000000000000000e+00 6.3993955570135491e-10 -5.5219278579314492e-12  0.0000000000000000e+00 6.3970349065248752e-10 -4.4551591662257912e-12  0.0000000000000000e+00 6.3992162137052069e-10 -4.6832850497706584e-12  0.0000000000000000e+00 6.3969946884216334e-10 -4.0445466108307199e-12  0.0000000000000000e+00 6.3991905355329712e-10 -4.2703784555366742e-12  0.0000000000000000e+00 6.3969585202804616e-10 -3.6345135985582170e-12  0.0000000000000000e+00 6.3991876371484451e-10 -3.8336957965247797e-12  0.0000000000000000e+00 6.3969261151631598e-10 -3.2233128284068091e-12  0.0000000000000000e+00 6.3991647769243268e-10 -3.4194289971090352e-12  0.0000000000000000e+00 6.3968975525313364e-10 -2.8134371428496793e-12  0.0000000000000000e+00 6.3991562283358063e-10 -3.0271113897213536e-12  0.0000000000000000e+00 6.3968718166499054e-10 -2.3836441707167935e-12  0.0000000000000000e+00 6.3991328462091385e-10 -2.6109779390500883e-12  0.0000000000000000e+00 6.3968508413276504e-10 -1.9643372542324769e-12  0.0000000000000000e+00 6.3991174680734025e-10 -2.1723336833028117e-12  0.0000000000000000e+00 6.3968340110942038e-10 -1.5512630461192655e-12  0.0000000000000000e+00 6.3990770292185970e-10 -1.7637914669017658e-12  0.0000000000000000e+00 6.3968211232081816e-10 -1.1340499892988432e-12  0.0000000000000000e+00 6.3990734927861268e-10 -1.3271497788135065e-12  0.0000000000000000e+00 6.3968122084916755e-10 -7.1679521028312667e-13  0.0000000000000000e+00 6.3990619143683578e-10 -9.0616912997339634e-13  0.0000000000000000e+00 6.3968072215092975e-10 -3.0884060844512603e-13  0.0000000000000000e+00 6.3990530886654564e-10 -5.0493436584910086e-13  0.0000000000000000e+00 6.3968061013043784e-10 1.0544434567302463e-13  0.0000000000000000e+00 6.3990557820762852e-10 -9.8519978773408051e-14  0.0000000000000000e+00 6.3968095211834451e-10 5.7235641977732242e-13  0.0000000000000000e+00 6.3990472530759517e-10 3.2714525235158139e-13  0.0000000000000000e+00 6.3968166387037846e-10 9.8174025251024856e-13  0.0000000000000000e+00 6.3990887660203044e-10 7.6406527654659994e-13  0.0000000000000000e+00 6.3968272570595104e-10 1.3866892186219104e-12  0.0000000000000000e+00 6.3990354388296093e-10 1.1651688923738293e-12  0.0000000000000000e+00 6.3968420354771396e-10 1.8031945781312491e-12  0.0000000000000000e+00 6.3989974697711400e-10 1.5860571258555553e-12  0.0000000000000000e+00 6.3968608458866337e-10 2.2203933924523024e-12  0.0000000000000000e+00 6.3990684959071170e-10 2.0112172304331194e-12  0.0000000000000000e+00 6.3968829078178796e-10 2.6252159427166025e-12  0.0000000000000000e+00 6.3990824614940939e-10 2.4280271810573989e-12  0.0000000000000000e+00 6.3969086927237920e-10 3.0299657597378988e-12  0.0000000000000000e+00 6.3991276965107107e-10 2.8435313766845760e-12  0.0000000000000000e+00 6.3969390913668766e-10 3.4465948446384186e-12  0.0000000000000000e+00 6.3991157976690704e-10 3.2420988617661860e-12  0.0000000000000000e+00 6.3969723985510534e-10 3.8515101010350801e-12  0.0000000000000000e+00 6.3991615764669934e-10 3.6448977048118686e-12  0.0000000000000000e+00 6.3970104078273346e-10 4.2676193281422580e-12  0.0000000000000000e+00 6.3991912103253141e-10 4.0565704262555739e-12  0.0000000000000000e+00 6.3970512870455469e-10 4.6726614124026201e-12  0.0000000000000000e+00 6.3992271019241986e-10 4.4810411955410049e-12  0.0000000000000000e+00 6.3970975544588944e-10 5.0918631642026118e-12  0.0000000000000000e+00 6.3992567097464544e-10 4.8859036653334261e-12  0.0000000000000000e+00 6.3971508748978952e-10 5.5340663884955793e-12  0.0000000000000000e+00 6.3993579341293079e-10 5.3106724301890173e-12  0.0000000000000000e+00 6.3972049323596545e-10 5.9477027831543204e-12  0.0000000000000000e+00 6.3993774206189949e-10 5.7513791910875813e-12  0.0000000000000000e+00 6.3972619651998256e-10 6.3540689595201428e-12  0.0000000000000000e+00 6.3994531265258236e-10 6.1673268174831605e-12  0.0000000000000000e+00 6.3973255606865110e-10 6.7775100524101081e-12  0.0000000000000000e+00 6.3994945442959579e-10 6.5831534452018947e-12  0.0000000000000000e+00 6.3973950469280753e-10 7.2099297399723730e-12  0.0000000000000000e+00 6.3995986331520065e-10 7.0114315561440409e-12  0.0000000000000000e+00 6.3974663752523289e-10 7.6278882641375405e-12  0.0000000000000000e+00 6.3997128661432191e-10 7.4243338651384323e-12  0.0000000000000000e+00 6.3975437109844396e-10 8.0556295698998748e-12  0.0000000000000000e+00 6.3997877762932119e-10 7.8490936398393473e-12  0.0000000000000000e+00 6.3976215790354390e-10 8.4637271118327139e-12  0.0000000000000000e+00 6.3998063409736990e-10 8.2770997262662792e-12  0.0000000000000000e+00 6.3977078780255847e-10 8.8930715207651029e-12  0.0000000000000000e+00 6.3998582171945090e-10 8.6974106291660598e-12  0.0000000000000000e+00 6.3978062065257272e-10 9.3566069677771759e-12  0.0000000000000000e+00 6.3999692637165913e-10 9.1403516445412474e-12  0.0000000000000000e+00 6.3979003524609003e-10 9.7798125617636012e-12  0.0000000000000000e+00 6.4000902819114735e-10 9.5494358397671952e-12  0.0000000000000000e+00 6.3979959158630922e-10 1.0190317545902852e-11  0.0000000000000000e+00 6.4001857864081788e-10 9.9693845804119761e-12  0.0000000000000000e+00 6.3980943299863532e-10 1.0594874277744644e-11  0.0000000000000000e+00 6.4002729213640531e-10 1.0404148253982907e-11  0.0000000000000000e+00 6.3981982395796586e-10 1.1005134687197316e-11  0.0000000000000000e+00 6.4003399548327182e-10 1.0810958659283408e-11  0.0000000000000000e+00 6.3983136406736351e-10 1.1442411585121865e-11  0.0000000000000000e+00 6.4004107505504093e-10 1.1226094436756711e-11  0.0000000000000000e+00 6.3984254400946631e-10 1.1848483218877900e-11  0.0000000000000000e+00 6.4006059383312239e-10 1.1666093009113892e-11  0.0000000000000000e+00 6.3985395820859478e-10 1.2248664511004272e-11  0.0000000000000000e+00 6.4006774553790483e-10 1.2070350851832471e-11  0.0000000000000000e+00 6.3986609784689972e-10 1.2659111778561077e-11  0.0000000000000000e+00 6.4007623353668555e-10 1.2469039586222899e-11  0.0000000000000000e+00 6.3987873011639082e-10 1.3070768306633635e-11  0.0000000000000000e+00 6.4009229201043598e-10 1.2880208130887901e-11  0.0000000000000000e+00 6.3989143606225555e-10 1.3470761190518925e-11  0.0000000000000000e+00 6.4010753423146603e-10 1.3294613108663790e-11  0.0000000000000000e+00 6.3990489329392946e-10 1.3880796134268672e-11  0.0000000000000000e+00 6.4011589303944730e-10 1.3688118875491856e-11  0.0000000000000000e+00 6.3991992798508222e-10 1.4322810693630049e-11  0.0000000000000000e+00 6.4013256730582396e-10 1.4128203228142713e-11  0.0000000000000000e+00 6.3993600768761440e-10 1.4779164287456047e-11  0.0000000000000000e+00 6.4014738471739192e-10 1.4569774414312419e-11  0.0000000000000000e+00 6.3995059315179966e-10 1.5179212919862924e-11  0.0000000000000000e+00 6.4016569321011942e-10 1.4998323921342812e-11  0.0000000000000000e+00 6.3996624241677640e-10 1.5595823335894377e-11  0.0000000000000000e+00 6.4017346068866289e-10 1.5400296117595401e-11  0.0000000000000000e+00 6.3998273672386278e-10 1.6020870816298875e-11  0.0000000000000000e+00 6.4019186343735953e-10 1.5832777337225641e-11  0.0000000000000000e+00 6.3999915911447911e-10 1.6431565764416180e-11  0.0000000000000000e+00 6.4021020681632173e-10 1.6228373642140480e-11  0.0000000000000000e+00 6.4001645436262400e-10 1.6851473766693097e-11  0.0000000000000000e+00 6.4023175437793343e-10 1.6641990638528531e-11  0.0000000000000000e+00 6.4003341870549072e-10 1.7251908715918595e-11  0.0000000000000000e+00 6.4024401862063629e-10 1.7073774267522627e-11  0.0000000000000000e+00 6.4005090513597079e-10 1.7653057188346284e-11  0.0000000000000000e+00 6.4025864431270430e-10 1.7483759564476861e-11  0.0000000000000000e+00 6.4007010218284131e-10 1.8081397234296113e-11  0.0000000000000000e+00 6.4027388386411800e-10 1.7898220865620297e-11  0.0000000000000000e+00 6.4008953265821137e-10 1.8502899002535745e-11  0.0000000000000000e+00 6.4029021892216641e-10 1.8309112486146697e-11  0.0000000000000000e+00 6.4010815129402915e-10 1.8896046005673434e-11  0.0000000000000000e+00 6.4031169108145161e-10 1.8708900117526847e-11  0.0000000000000000e+00 6.4012852465943939e-10 1.9315056729932339e-11  0.0000000000000000e+00 6.4032707904300199e-10 1.9118892817450472e-11  0.0000000000000000e+00 6.4014916710024157e-10 1.9727680461815341e-11  0.0000000000000000e+00 6.4035414168015686e-10 1.9546241837574784e-11  0.0000000000000000e+00 6.4016940647757237e-10 2.0122180245171663e-11  0.0000000000000000e+00 6.4037632784799999e-10 1.9952635859981567e-11  0.0000000000000000e+00 6.4019043209412135e-10 2.0521979303890773e-11  0.0000000000000000e+00 6.4039783464634353e-10 2.0344442663141417e-11  0.0000000000000000e+00 6.4021161997946864e-10 2.0914992289278371e-11  0.0000000000000000e+00 6.4042066049910712e-10 2.0746561146509711e-11  0.0000000000000000e+00 6.4023365378406365e-10 2.1313955500332802e-11  0.0000000000000000e+00 6.4044268934032377e-10 2.1133228431418286e-11  0.0000000000000000e+00 6.4025774584519237e-10 2.1739366552695635e-11  0.0000000000000000e+00 6.4046459413160581e-10 2.1542598244004675e-11  0.0000000000000000e+00 6.4028116105845905e-10 2.2142673980363575e-11  0.0000000000000000e+00 6.4048594537888942e-10 2.1951684271813567e-11  0.0000000000000000e+00 6.4030428380153111e-10 2.2531357866866990e-11  0.0000000000000000e+00 6.4050932448089659e-10 2.2358329956459083e-11  0.0000000000000000e+00 6.4032785039105381e-10 2.2918592671684256e-11  0.0000000000000000e+00 6.4052491498652073e-10 2.2751738000322178e-11  0.0000000000000000e+00 6.4035429916326555e-10 2.3343039907835886e-11  0.0000000000000000e+00 6.4055233874545653e-10 2.3145931345482719e-11  0.0000000000000000e+00 6.4037895893420915e-10 2.3728957151875408e-11  0.0000000000000000e+00 6.4058839620304811e-10 2.3574926034409265e-11  0.0000000000000000e+00 6.4040412529206440e-10 2.4114514214899852e-11  0.0000000000000000e+00 6.4061051569672187e-10 2.3968105163859769e-11  0.0000000000000000e+00 6.4043080400117558e-10 2.4514127999365125e-11  0.0000000000000000e+00 6.4063873358602989e-10 2.4350720355730626e-11  0.0000000000000000e+00 6.4046089701874404e-10 2.4954334826568317e-11  0.0000000000000000e+00 6.4065998669712478e-10 2.4761721721327420e-11  0.0000000000000000e+00 6.4048770569110520e-10 2.5337410024693733e-11  0.0000000000000000e+00 6.4068679139238832e-10 2.5169378070836373e-11  0.0000000000000000e+00 6.4051567682481879e-10 2.5728551893559377e-11  0.0000000000000000e+00 6.4071319449858557e-10 2.5549321895285220e-11  0.0000000000000000e+00 6.4054568547349859e-10 2.6138780883704029e-11  0.0000000000000000e+00 6.4074243894706496e-10 2.5949042173676322e-11  0.0000000000000000e+00 6.4057444224541581e-10 2.6523206292865996e-11  0.0000000000000000e+00 6.4076944682029796e-10 2.6367287387910913e-11  0.0000000000000000e+00 6.4060513274534353e-10 2.6924888330814701e-11  0.0000000000000000e+00 6.4079762291461250e-10 2.6750863839335552e-11  0.0000000000000000e+00 6.4063701673192741e-10 2.7332463535563010e-11  0.0000000000000000e+00 6.4083873796292206e-10 2.7177225794016568e-11  0.0000000000000000e+00 6.4066928033107037e-10 2.7736194148672422e-11  0.0000000000000000e+00 6.4086572046781535e-10 2.7576069091140139e-11  0.0000000000000000e+00 6.4070486981083129e-10 2.8171368934609143e-11  0.0000000000000000e+00 6.4089898725860049e-10 2.8003577280155902e-11  0.0000000000000000e+00 6.4073802844804406e-10 2.8567903451886416e-11  0.0000000000000000e+00 6.4092985847827933e-10 2.8407435565986706e-11  0.0000000000000000e+00 6.4077083535497365e-10 2.8952065272432669e-11  0.0000000000000000e+00 6.4096370430149559e-10 2.8786395652797977e-11  0.0000000000000000e+00 6.4080644910498622e-10 2.9360455170566730e-11  0.0000000000000000e+00 6.4099671842050889e-10 2.9171383186490484e-11  0.0000000000000000e+00 6.4084035858232987e-10 2.9740977091029993e-11  0.0000000000000000e+00 6.4103268267906363e-10 2.9586101372180142e-11  0.0000000000000000e+00 6.4087745474168514e-10 3.0148520846407546e-11  0.0000000000000000e+00 6.4106303791812687e-10 2.9978079973962124e-11  0.0000000000000000e+00 6.4091230055663074e-10 3.0523320495582625e-11  0.0000000000000000e+00 6.4109516467368113e-10 3.0376767645878582e-11  0.0000000000000000e+00 6.4094854838621819e-10 3.0905551426176858e-11  0.0000000000000000e+00 6.4113020851935192e-10 3.0758626587063607e-11  0.0000000000000000e+00 6.4098802514812010e-10 3.1312857540341099e-11  0.0000000000000000e+00 6.4117429718236258e-10 3.1156759802305600e-11  0.0000000000000000e+00 6.4102467590750385e-10 3.1683380642249498e-11  0.0000000000000000e+00 6.4121377655115635e-10 3.1541677654974366e-11  0.0000000000000000e+00 6.4106329028919489e-10 3.2066252968380944e-11  0.0000000000000000e+00 6.4124864881107140e-10 3.1910400633342010e-11  0.0000000000000000e+00 6.4110470909806571e-10 3.2468490956395743e-11  0.0000000000000000e+00 6.4128666821892537e-10 3.2291175996862070e-11  0.0000000000000000e+00 6.4114443529971879e-10 3.2846595570909674e-11  0.0000000000000000e+00 6.4132200546498702e-10 3.2675007973031512e-11  0.0000000000000000e+00 6.4118456934750767e-10 3.3220889111681162e-11  0.0000000000000000e+00 6.4135933273990391e-10 3.3072444211144415e-11  0.0000000000000000e+00 6.4122479936877740e-10 3.3588716036638123e-11  0.0000000000000000e+00 6.4140165109224328e-10 3.3450374594004396e-11  0.0000000000000000e+00 6.4126628088209069e-10 3.3960764167214910e-11  0.0000000000000000e+00 6.4144397796981511e-10 3.3814925439761535e-11  0.0000000000000000e+00 6.4130793649145383e-10 3.4326976051825481e-11  0.0000000000000000e+00 6.4148938399539781e-10 3.4201723625039967e-11  0.0000000000000000e+00 6.4135219819869814e-10 3.4708866202459241e-11  0.0000000000000000e+00 6.4152682623779418e-10 3.4560862241801839e-11  0.0000000000000000e+00 6.4139766915605227e-10 3.5093155321384933e-11  0.0000000000000000e+00 6.4157401023213755e-10 3.4949275125027174e-11  0.0000000000000000e+00 6.4144108404512791e-10 3.5453205146778689e-11  0.0000000000000000e+00 6.4161624082135261e-10 3.5309032938253251e-11  0.0000000000000000e+00 6.4148577591495577e-10 3.5816682749221195e-11  0.0000000000000000e+00 6.4166218453967900e-10 3.5689329481468323e-11  0.0000000000000000e+00 6.4153354151565773e-10 3.6197751793063770e-11  0.0000000000000000e+00 6.4171001904428931e-10 3.6046638661360729e-11  0.0000000000000000e+00 6.4158226373724534e-10 3.6578536700928727e-11  0.0000000000000000e+00 6.4176300843628953e-10 3.6436816957546231e-11  0.0000000000000000e+00 6.4163213412469659e-10 3.6960780946119916e-11  0.0000000000000000e+00 6.4180559587153021e-10 3.6810658194201921e-11  0.0000000000000000e+00 6.4168110492375841e-10 3.7328564382823375e-11  0.0000000000000000e+00 6.4185288086791959e-10 3.7204624848814105e-11  0.0000000000000000e+00 6.4173003180807862e-10 3.7689286480876482e-11  0.0000000000000000e+00 6.4189975721090589e-10 3.7554399566120067e-11  0.0000000000000000e+00 6.4178286289779717e-10 3.8071447897391437e-11  0.0000000000000000e+00 6.4194595776354799e-10 3.7923839037920030e-11  0.0000000000000000e+00 6.4183357050218779e-10 3.8430997084038420e-11  0.0000000000000000e+00 6.4200302815075886e-10 3.8298501745381375e-11  0.0000000000000000e+00 6.4188388888644338e-10 3.8781252488982617e-11  0.0000000000000000e+00 6.4205387551119045e-10 3.8673475908537538e-11  0.0000000000000000e+00 6.4193933747694777e-10 3.9160089452261527e-11  0.0000000000000000e+00 6.4210408492484639e-10 3.9025529352633141e-11  0.0000000000000000e+00 6.4199192812958549e-10 3.9512451047759787e-11  0.0000000000000000e+00 6.4215701109552721e-10 3.9390146416320810e-11  0.0000000000000000e+00 6.4204607942817974e-10 3.9868538468929746e-11  0.0000000000000000e+00 6.4220914299865803e-10 3.9742207451342226e-11  0.0000000000000000e+00 6.4210511539123133e-10 4.0248984892114463e-11  0.0000000000000000e+00 6.4226594633134970e-10 4.0112936068649198e-11  0.0000000000000000e+00 6.4216143220786866e-10 4.0604867558054394e-11  0.0000000000000000e+00 6.4232057650356453e-10 4.0477089003729885e-11  0.0000000000000000e+00 6.4222196781809707e-10 4.0980207143595233e-11  0.0000000000000000e+00 6.4237436358894054e-10 4.0838943186648337e-11  0.0000000000000000e+00 6.4227842683374681e-10 4.1323531027240998e-11  0.0000000000000000e+00 6.4243284784661715e-10 4.1201196211800490e-11  0.0000000000000000e+00 6.4233695889867610e-10 4.1672948033789623e-11  0.0000000000000000e+00 6.4249265471391634e-10 4.1547788734302496e-11  0.0000000000000000e+00 6.4239490189090697e-10 4.2012496820398325e-11  0.0000000000000000e+00 6.4255368879199465e-10 4.1899568460516800e-11  0.0000000000000000e+00 6.4245395424498028e-10 4.2352510421716124e-11  0.0000000000000000e+00 6.4260703834384893e-10 4.2228941939897524e-11  0.0000000000000000e+00 6.4251507183800962e-10 4.2697914351375606e-11  0.0000000000000000e+00 6.4266686158235142e-10 4.2573389877383625e-11  0.0000000000000000e+00 6.4257561961655887e-10 4.3033780955352620e-11  0.0000000000000000e+00 6.4273059892553736e-10 4.2930530870453929e-11  0.0000000000000000e+00 6.4263740409948381e-10 4.3370346093325212e-11  0.0000000000000000e+00 6.4279338697833809e-10 4.3278812245963380e-11  0.0000000000000000e+00 6.4270119516735157e-10 4.3711618781594638e-11  0.0000000000000000e+00 6.4285681277698123e-10 4.3606286574817947e-11  0.0000000000000000e+00 6.4276445689683087e-10 4.4043712480723252e-11  0.0000000000000000e+00 6.4292082224219002e-10 4.3952137921029410e-11  0.0000000000000000e+00 6.4282901747462309e-10 4.4376745217293472e-11  0.0000000000000000e+00 6.4297641585914333e-10 4.4274639921904789e-11  0.0000000000000000e+00 6.4289736416568575e-10 4.4722672879837896e-11  0.0000000000000000e+00 6.4304412294398061e-10 4.4622629769144563e-11  0.0000000000000000e+00 6.4297246769935568e-10 4.5095228531603799e-11  0.0000000000000000e+00 6.4311990527961066e-10 4.4991054218535042e-11  0.0000000000000000e+00 6.4304587244399515e-10 4.5452172896716319e-11  0.0000000000000000e+00 6.4319308232086180e-10 4.5342411406153298e-11  0.0000000000000000e+00 6.4311403378282146e-10 4.5777466517852578e-11  0.0000000000000000e+00 6.4326231040699557e-10 4.5683975860247957e-11  0.0000000000000000e+00 6.4318695009592936e-10 4.6119037956260465e-11  0.0000000000000000e+00 6.4332977493596477e-10 4.6020770807501706e-11  0.0000000000000000e+00 6.4326809376076700e-10 4.6491573679022564e-11  0.0000000000000000e+00 6.4340387962462398e-10 4.6371653350474702e-11  0.0000000000000000e+00 6.4334268023653335e-10 4.6827162053058400e-11  0.0000000000000000e+00 6.4348565052299029e-10 4.6730410541221762e-11  0.0000000000000000e+00 6.4341502699712492e-10 4.7146776879094313e-11  0.0000000000000000e+00 6.4355887827212183e-10 4.7062777479115997e-11  0.0000000000000000e+00 6.4349440690816164e-10 4.7491064545072270e-11  0.0000000000000000e+00 6.4362947956625889e-10 4.7382855277736885e-11  0.0000000000000000e+00 6.4357007639981418e-10 4.7812886700570545e-11  0.0000000000000000e+00 6.4371255002117513e-10 4.7732331937062278e-11  0.0000000000000000e+00 6.4364753559575928e-10 4.8136418433575179e-11  0.0000000000000000e+00 6.4378552404650470e-10 4.8055674908153404e-11  0.0000000000000000e+00 6.4373171971385074e-10 4.8481411596477481e-11  0.0000000000000000e+00 6.4385856346880866e-10 4.8380826288048236e-11  0.0000000000000000e+00 6.4381192551771494e-10 4.8803702066481139e-11  0.0000000000000000e+00 6.4394152739792858e-10 4.8717185415898048e-11  0.0000000000000000e+00 6.4389077283584362e-10 4.9114645239522669e-11  0.0000000000000000e+00 6.4402697149089105e-10 4.9043250259770031e-11  0.0000000000000000e+00 6.4397070820906573e-10 4.9424398169016084e-11  0.0000000000000000e+00 6.4409805974362346e-10 4.9345117820150884e-11  0.0000000000000000e+00 6.4405959763362551e-10 4.9762308746375141e-11  0.0000000000000000e+00 6.4418038422830025e-10 4.9667779