<?xml version="1.0"?>
<VTKFile type="UnstructuredGrid"  version="0.1"  >
<UnstructuredGrid>
<Piece  NumberOfPoints="10049" NumberOfCells="19698">
<Points>
<DataArray  type="Float64"  NumberOfComponents="3"  format="ascii">3.875499574247055e-23 9.29896634840042e-07 2.832266607097074e-08  3.847840040459637e-23 9.292781534749271e-07 3.019553402702106e-08  3.869596087308822e-23 9.307906618468209e-07 2.974843190925393e-08  3.822619727987443e-23 9.289588210231773e-07 3.214784537230994e-08  3.846725948954085e-23 9.304594087353973e-07 3.147713772927643e-08  3.896563444806269e-23 9.318448912844064e-07 2.837365772330594e-08  3.824928819014011e-23 9.303577470673111e-07 3.333878698670745e-08  3.866378436864314e-23 9.317578673327725e-07 3.10054575820634e-08  3.849093502564464e-23 9.316568417346818e-07 3.246132045741128e-08  3.884101871320748e-23 9.320469779537818e-07 2.969818314679827e-08  3.949886498170425e-23 9.335139916493695e-07 2.523984442304769e-08  3.922977892304383e-23 9.324638142699333e-07 2.661337879063879e-08  3.936274806362633e-23 9.337852478658246e-07 2.673713284257187e-08  3.900452492426054e-23 9.330108463907857e-07 2.918931856145945e-08  3.884901675556628e-23 9.328900535735447e-07 3.046921880538753e-08  3.957500343297657e-23 9.347286849597672e-07 2.576874353188823e-08  3.916858809167488e-23 9.332325037385929e-07 2.793322627000184e-08  3.80180333217813e-23 9.304594161508549e-07 3.552341474818792e-08  3.831040448401863e-23 9.316762524954711e-07 3.410680577819239e-08  3.965590912550287e-23 9.344300709030446e-07 2.474139578173848e-08  3.9446451719463e-23 9.347127553296636e-07 2.691070479993964e-08  3.901398923690373e-23 9.338362385819245e-07 2.992946380281189e-08  3.818143977075471e-23 9.319507081118266e-07 3.554287226374647e-08  3.868786252260247e-23 9.327527731239027e-07 3.178348664279557e-08  3.796659277209406e-23 9.316043967976421e-07 3.713173067578155e-08  3.775103060719324e-23 9.314655006894149e-07 3.893444593859938e-08  3.757406067509398e-23 9.31550826968658e-07 4.061377565835848e-08  3.777901601996191e-23 9.326243451412419e-07 3.984122020139273e-08  3.977661246410393e-23 9.35411003176174e-07 2.463512903337564e-08  3.796238305711783e-23 9.327027257812419e-07 3.826797740097794e-08  3.957374089735693e-23 9.354890621779031e-07 2.654049265991637e-08  3.915456212375609e-23 9.340322324024164e-07 2.885928962161047e-08  3.930534936626116e-23 9.343348650813161e-07 2.780375156219403e-08  3.822186856601342e-23 9.331669216333257e-07 3.639493557072119e-08  3.838321859723302e-23 9.329556761883546e-07 3.473037824479646e-08  3.88668495470353e-23 9.33740892905536e-07 3.115943463134918e-08  3.79619500140237e-23 9.336403573041074e-07 3.920950942927813e-08  3.852992338897636e-23 9.328153042441853e-07 3.326860700976968e-08  3.943643832544897e-23 9.353481584282166e-07 2.763630053359337e-08  3.970045357480362e-23 9.357252048218529e-07 2.563530897000222e-08  3.915334219735804e-23 9.347092776543421e-07 2.954732299367946e-08  3.968145895771154e-23 9.362026584016326e-07 2.628385085069769e-08  3.983208392795185e-23 9.362084158151501e-07 2.493289914452126e-08  3.902597476474296e-23 9.346118497545047e-07 3.05971189379709e-08  3.873212842911625e-23 9.337888308240259e-07 3.242083250275742e-08  3.958480594800768e-23 9.361312889671999e-07 2.708305433323818e-08  3.978401686286721e-23 9.364595525950693e-07 2.56169855572485e-08  3.991653786263741e-23 9.362067504352367e-07 2.417054034704821e-08  3.928408901751444e-23 9.349656457059822e-07 2.862602838424718e-08  3.890307212092321e-23 9.346285008606525e-07 3.172077864593762e-08  3.814587207400059e-23 9.339341685394531e-07 3.784669802306954e-08  3.842872729440416e-23 9.339336131008683e-07 3.52984092540661e-08  3.858424268118089e-23 9.340113495875557e-07 3.397538766487739e-08  3.994419559334895e-23 9.368099529701452e-07 2.452462419050398e-08  3.91571874155517e-23 9.353900436786569e-07 3.019345437154612e-08  3.837479495280545e-23 9.34610995357734e-07 3.646157085798612e-08  3.949935869562859e-23 9.361121390844166e-07 2.78335448784034e-08  3.969656949768672e-23 9.367902441720417e-07 2.673533297670355e-08  3.880319234883061e-23 9.347868120227318e-07 3.277872681677312e-08  3.904955075192258e-23 9.353589357665879e-07 3.113185133590007e-08  3.797682897818549e-23 9.344551259662505e-07 3.98902602965118e-08  3.811020514802867e-23 9.345846934120289e-07 3.881848200467853e-08  3.856625632208515e-23 9.348680596186085e-07 3.499410441617285e-08  3.960584851349405e-23 9.368081020850852e-07 2.757033287095677e-08  3.976817491470075e-23 9.367817911795091e-07 2.608191572540691e-08  3.938799603615719e-23 9.357694432314436e-07 2.849391468882715e-08  3.92755424038451e-23 9.355335202631807e-07 2.927088399371867e-08  3.89535152023162e-23 9.354306596383586e-07 3.2068586538514e-08  3.810879883206638e-23 9.352131930131312e-07 3.945964857386831e-08  3.948150143778173e-23 9.364889300830208e-07 2.837117975657759e-08  3.826627564385271e-23 9.349584165404378e-07 3.778644707941409e-08  3.853663972915738e-23 9.355639714661688e-07 3.595677881748008e-08  3.870754349523798e-23 9.350094864679085e-07 3.386292954474622e-08  3.917413374533047e-23 9.360324786104136e-07 3.068325033434887e-08  3.981304517378656e-23 9.37322636751574e-07 2.621860593327405e-08  3.987561955502018e-23 9.367946189337388e-07 2.512696819542544e-08  3.927269753390081e-23 9.360911467563858e-07 2.985413479736578e-08  3.98511426566342e-23 9.370488474692974e-07 2.560166503188469e-08  3.865112630071274e-23 9.357537138877522e-07 3.511531787707218e-08  3.97241433043746e-23 9.373583193209808e-07 2.705504535459329e-08  3.99493060258395e-23 9.373267291131927e-07 2.499536964983112e-08  3.908494718115105e-23 9.360450163431798e-07 3.149910922152477e-08  3.887996411013186e-23 9.356787836090304e-07 3.297919985189395e-08  3.84304570017365e-23 9.357346534229927e-07 3.708386975759576e-08  3.937651724383484e-23 9.362454247076841e-07 2.907328793471891e-08  3.864991595669314e-23 9.362674740122262e-07 3.563997981129752e-08  3.966858102390816e-23 9.374875108219055e-07 2.768469738672705e-08  3.901553757791619e-23 9.361777350142118e-07 3.225701401908566e-08  3.879585100304603e-23 9.35792060255199e-07 3.385010001351998e-08  3.821897532728375e-23 9.353798893047883e-07 3.863396321991344e-08  3.821380520964545e-23 9.35882376151544e-07 3.918301834640778e-08  3.990418860445622e-23 9.375287722232062e-07 2.560379436410395e-08  3.956380873531408e-23 9.371174107002589e-07 2.825830214482256e-08  3.981914636867714e-23 9.378141531215506e-07 2.665516762517925e-08  3.92790803013569e-23 9.366474544009841e-07 3.035295158369044e-08  3.919668154000187e-23 9.366182415547406e-07 3.106592079931547e-08  3.975735310715897e-23 9.379018126835799e-07 2.729941140630291e-08  3.873335484858572e-23 9.363838243281617e-07 3.500477940236181e-08  3.912309102629147e-23 9.366443953378134e-07 3.175491900263673e-08  3.889209460399989e-23 9.362197769192205e-07 3.341093138675626e-08  3.833188675914829e-23 9.35699832080393e-07 3.793689023057614e-08  3.85770701775949e-23 9.363381254988951e-07 3.636676774517108e-08  3.99966877955388e-23 9.379046813634516e-07 2.514654485936612e-08  3.87592213028415e-23 9.361010264495509e-07 3.448899721625557e-08  3.831663492303966e-23 9.361226557200345e-07 3.849709019704877e-08  3.937436461020893e-23 9.367409555122924e-07 2.958820793931826e-08  3.946658589212061e-23 9.368972700827629e-07 2.891386704808251e-08  3.988637523941392e-23 9.378197138364969e-07 2.605518450572807e-08  3.882830495597143e-23 9.367044350573738e-07 3.447015559509181e-08  3.873144322266896e-23 9.367501765023716e-07 3.538834997210444e-08  3.962733428113343e-23 9.376808444208515e-07 2.824954861645407e-08  3.970816017410323e-23 9.380227299794702e-07 2.786341925215139e-08  3.868892766077323e-23 9.354646460509308e-07 3.448576565808581e-08  3.983533181956969e-23 9.382691586203337e-07 2.696438754274523e-08  3.989711175056889e-23 9.382197818307549e-07 2.635854660471255e-08  3.906621875199202e-23 9.367637907483692e-07 3.238657431987787e-08  3.921785951743452e-23 9.371223693961123e-07 3.1379294378139e-08  3.928798247439034e-23 9.371164604457082e-07 3.074177398210217e-08  3.851941367446682e-23 9.365876067938774e-07 3.71355726521597e-08  3.88589722601269e-23 9.364525407617877e-07 3.394203478037162e-08  3.841777417735256e-23 9.363381142778861e-07 3.780156733882816e-08  3.897496009821391e-23 9.364307919506227e-07 3.287556040043029e-08  3.91569636095766e-23 9.371677713089073e-07 3.197319786680856e-08  3.954254224815214e-23 9.374440857351191e-07 2.877652866699872e-08  3.994493921123302e-23 9.381715352263068e-07 2.587950853221436e-08  3.9945397358335e-23 9.379203460705062e-07 2.562419275417821e-08  3.894936403285675e-23 9.367684472424973e-07 3.34437645531142e-08  3.863053800911251e-23 9.369989529078996e-07 3.65459997419776e-08  3.879880342949828e-23 9.369117302864865e-07 3.49431769514672e-08  3.979223309996083e-23 9.384430662287588e-07 2.752649390631153e-08  3.937469469071498e-23 9.372283475757623e-07 3.007262690189997e-08  3.868938352628647e-23 9.368723086002071e-07 3.588932213585095e-08  3.910638816709019e-23 9.372186168235712e-07 3.247958646934426e-08  4.007960917762119e-23 9.381938812972346e-07 2.468885538225448e-08  4.005518917198258e-23 9.383623473112451e-07 2.507727725285393e-08  3.99626528189905e-23 9.384794883881815e-07 2.602791169949703e-08  3.929822005494952e-23 9.375206382830695e-07 3.105373989148054e-08  3.89194453973005e-23 9.370230440792422e-07 3.396784450174419e-08  3.903346193791989e-23 9.370155441059713e-07 3.293337482877816e-08  3.999725166999751e-23 9.382236369865172e-07 2.546042155282754e-08  3.946726489425812e-23 9.373627728591461e-07 2.937325391691885e-08  3.924543907647381e-23 9.3765238515096e-07 3.166089554936192e-08  3.966821794748265e-23 9.381217268729055e-07 2.832218373943634e-08  3.917269365868031e-23 9.375978421586363e-07 3.226158502997363e-08  3.993611105543375e-23 9.385500409066814e-07 2.633753117092475e-08  4.011440470962432e-23 9.385594233634919e-07 2.474098715858492e-08  3.888662312030607e-23 9.373170563890951e-07
[...]
<PointData  Tensors="f_71"> 
<DataArray  type="Float64"  Name="f_71"  NumberOfComponents="9" format="ascii">2.3795587973888952e+07 -1.0226249389133426e-08 -3.3771058122688888e-08 -1.0226249389133426e-08 3.2119069572692741e+07 -1.4880681415088910e+08 -3.3771058122688888e-08 -1.4880681415088910e+08 3.1504048549340558e+08  2.3430459788816977e+07 -9.6590920599442969e-09 -3.3151262941613289e-08 -9.6590920599442969e-09 3.1201436338386942e+07 -1.3753997422768191e+08 -3.3151262941613289e-08 -1.3753997422768191e+08 3.2170008924029106e+08  1.9934662142266165e+07 -1.0360417804713203e-08 -3.5780140521146972e-08 -1.0360417804713203e-08 2.3902381141050525e+07 -1.4736937300208864e+08 -3.5780140521146972e-08 -1.4736937300208864e+08 3.4523866216594750e+08  1.9614682467073340e+07 -9.7978489557171681e-09 -3.2724112987654252e-08 -9.7978489557171681e-09 2.4097624706707869e+07 -1.2577865499076523e+08 -3.2724112987654252e-08 -1.2577865499076523e+08 3.2403315941240978e+08  1.8066022038833927e+07 -1.0091934809515086e-08 -3.5014676897165905e-08 -1.0091934809515086e-08 2.0462451927351806e+07 -1.3685224262984225e+08 -3.5014676897165905e-08 -1.3685224262984225e+08 3.4532844882013237e+08  2.0815101998991281e+07 -1.0507858895995745e-08 -3.7539532613625124e-08 -1.0507858895995745e-08 2.5043150990359943e+07 -1.6083759723148480e+08 -3.7539532613625124e-08 -1.6083759723148480e+08 3.5818422243055189e+08  1.5479176455116402e+07 -1.0201504672708865e-08 -3.4959623926369903e-08 -1.0201504672708865e-08 1.5434450913750106e+07 -1.2697899168214318e+08 -3.4959623926369903e-08 -1.2697899168214318e+08 3.5264862144138658e+08  1.4277395086102886e+07 -1.0775617517479882e-08 -3.7167715769173723e-08 -1.0775617517479882e-08 1.2844507844786203e+07 -1.4506673016546521e+08 -3.7167715769173723e-08 -1.4506673016546521e+08 3.6292374912703103e+08  1.2744014881556647e+07 -1.0719126197127343e-08 -3.6926431599001978e-08 -1.0719126197127343e-08 9.8129557800477371e+06 -1.3577659838142702e+08 -3.6926431599001978e-08 -1.3577659838142702e+08 3.6864688323041368e+08  1.5553376537323881e+07 -1.0992417675008754e-08 -3.7989848101769178e-08 -1.0992417675008754e-08 1.5061811050443280e+07 -1.5315070825152496e+08 -3.7989848101769178e-08 -1.5315070825152496e+08 3.6642366921480948e+08  2.2152107277223922e+07 -1.1503734257517995e-08 -4.0259718807278714e-08 -1.1503734257517995e-08 2.7101395909452807e+07 -1.8444627209913397e+08 -4.0259718807278714e-08 -1.8444627209913397e+08 3.6902451660304302e+08  2.2908708699353822e+07 -1.0867180835277718e-08 -3.8508800274513214e-08 -1.0867180835277718e-08 2.8878926187098287e+07 -1.7338277653517163e+08 -3.8508800274513214e-08 -1.7338277653517163e+08 3.5857848161993384e+08  1.8564727282256525e+07 -1.1523433406631614e-08 -4.1317262482799598e-08 -1.1523433406631614e-08 1.9765778016312204e+07 -1.7937934889633027e+08 -4.1317262482799598e-08 -1.7937934889633027e+08 3.8899510879314137e+08  1.7025843960923575e+07 -1.0834122908784512e-08 -3.9472893677207018e-08 -1.0834122908784512e-08 1.7191329242762726e+07 -1.6268682388043568e+08 -3.9472893677207018e-08 -1.6268682388043568e+08 3.8207628531824833e+08  1.3366165086004553e+07 -1.1264870807094509e-08 -3.9260604001955716e-08 -1.1264870807094509e-08 1.0376664729062203e+07 -1.5211039721171534e+08 -3.9260604001955716e-08 -1.5211039721171534e+08 3.8435343029273504e+08  1.8923109677599654e+07 -1.1712758490193649e-08 -4.2940724649816571e-08 -1.1712758490193649e-08 1.9956714347422969e+07 -1.9048181106114048e+08 -4.2940724649816571e-08 -1.9048181106114048e+08 4.0166249334636378e+08  1.7062630349440347e+07 -1.1085488393132126e-08 -3.9782122504517001e-08 -1.1085488393132126e-08 1.7392523178031474e+07 -1.6871027956406939e+08 -3.9782122504517001e-08 -1.6871027956406939e+08 3.7846300966030389e+08  1.0496950904123215e+07 -1.0497358434965626e-08 -3.4963978768679059e-08 -1.0497358434965626e-08 5.9561710757884588e+06 -1.1402898416894506e+08 -3.4963978768679059e-08 -1.1402898416894506e+08 3.6118481996165532e+08  7.4846330900388425e+06 -1.0919226991411413e-08 -3.6836190638146014e-08 -1.0919226991411413e-08 1.3807072639271728e+04 -1.2661054190399730e+08 -3.6836190638146014e-08 -1.2661054190399730e+08 3.7207329870147008e+08  2.2391227435461015e+07 -1.1943955452946471e-08 -4.2410986529804739e-08 -1.1943955452946471e-08 2.6732375014065955e+07 -1.9300340050141490e+08 -4.2410986529804739e-08 -1.9300340050141490e+08 3.9090831676557493e+08  1.5949784201353159e+07 -1.1795695031187699e-08 -4.2902090417121869e-08 -1.1795695031187699e-08 1.4256869718043741e+07 -1.8175903994805014e+08 -4.2902090417121869e-08 -1.8175903994805014e+08 4.0792930126693785e+08  1.1704981668607371e+07 -1.1534002656600811e-08 -4.0852219969770200e-08 -1.1534002656600811e-08 6.7590391922858777e+06 -1.5858605520338908e+08 -4.0852219969770200e-08 -1.5858605520338908e+08 3.9957461584701353e+08  4.7889685226955954e+06 -1.1437713618477346e-08 -3.7442060732588372e-08 -1.1437713618477346e-08 -5.4562248654515445e+06 -1.1743697458361809e+08 -3.7442060732588372e-08 -1.1743697458361809e+08 3.8593876309659797e+08  9.7885958435560651e+06 -1.1283516121976182e-08 -3.8944975340388942e-08 -1.1283516121976182e-08 3.7580641415874278e+06 -1.4415914432242715e+08 -3.8944975340388942e-08 -1.4415914432242715e+08 3.8541145949212748e+08  3.2696901572362767e+06 -1.1477312800529918e-08 -3.6456338936242445e-08 -1.1477312800529918e-08 -8.0353153171468172e+06 -1.0706207659426193e+08 -3.6456338936242445e-08 -1.0706207659426193e+08 3.8012110492147332e+08  2.3785378301915694e+06 -1.1340692647788357e-08 -3.5775667450448434e-08 -1.1340692647788357e-08 -9.7639148908863831e+06 -9.5316851154781416e+07 -3.5775667450448434e-08 -9.5316851154781416e+07 3.8254773220746416e+08  -2.4877468568802922e+05 -1.1811646798088932e-08 -3.5657784781455516e-08 -1.1811646798088932e-08 -1.4778359291666638e+07 -8.4053285517087594e+07 -3.5657784781455516e-08 -8.4053285517087594e+07 3.8748739856289136e+08  -2.8982898736809995e+06 -1.2293438917322000e-08 -3.7309446084721159e-08 -1.2293438917322000e-08 -2.0131185723056201e+07 -9.1285124536650315e+07 -3.7309446084721159e-08 -9.1285124536650315e+07 4.0047802875278759e+08  1.9171571477819510e+07 -1.2386768781495291e-08 -4.4260257026954170e-08 -1.2386768781495291e-08 2.0116629178107481e+07 -1.9777639769093603e+08 -4.4260257026954170e-08 -1.9777639769093603e+08 4.0969945072422296e+08  -1.0873961422213160e+06 -1.2155010361534613e-08 -3.7931039208177048e-08 -1.2155010361534613e-08 -1.6828032045145214e+07 -1.0184677594124456e+08 -3.7931039208177048e-08 -1.0184677594124456e+08 4.0121550962902731e+08  1.5166032692680636e+07 -1.2095746552404051e-08 -4.4198351499978494e-08 -1.2095746552404051e-08 1.2386650780504534e+07 -1.8752600270786318e+08 -4.4198351499978494e-08 -1.8752600270786318e+08 4.1953221808195233e+08  1.3008275042424057e+07 -1.1471833649451449e-08 -4.1154901216462947e-08 -1.1471833649451449e-08 9.2652518622555826e+06 -1.6697298654014042e+08 -4.1154901216462947e-08 -1.6697298654014042e+08 3.9661642536751205e+08  1.3749499071630452e+07 -1.1892539905654555e-08 -4.2082699517217105e-08 -1.1892539905654555e-08 1.0488229136949284e+07 -1.7453015849950910e+08 -4.2082699517217105e-08 -1.7453015849950910e+08 4.0041005474973524e+08  -1.4976425383977135e+05 -1.2227502512179281e-08 -3.8803207827025940e-08 -1.2227502512179281e-08 -1.5142939700930426e+07 -1.1371258887782015e+08 -3.8803207827025940e-08 -1.1371258887782015e+08 4.0227897834320182e+08  5.7824566449659420e+06 -1.1354569788398782e-08 -3.8931171517126033e-08 -1.1354569788398782e-08 -4.1475655593246501e+06 -1.2769833281707919e+08 -3.8931171517126033e-08 -1.2769833281707919e+08 3.9996709467963570e+08  8.5097248178530019e+06 -1.1699787637352011e-08 -4.0631960691353317e-08 -1.1699787637352011e-08 8.2005521051319677e+05 -1.5062818060070613e+08 -4.0631960691353317e-08 -1.5062818060070613e+08 4.0126831135056663e+08  -5.7312827034220649e+06 -1.2851290520896075e-08 -3.8912669613240164e-08 -1.2851290520896075e-08 -2.5844608547151428e+07 -9.6573191665773705e+07 -3.8912669613240164e-08 -9.6573191665773705e+07 4.1409539659264547e+08  6.4706763259664793e+06 -1.1448888893552544e-08 -3.8866037883281690e-08 -1.1448888893552544e-08 -2.5563937229094249e+06 -1.3450656211314785e+08 -3.8866037883281690e-08 -1.3450656211314785e+08 3.9116068993831491e+08  1.2817120708107281e+07 -1.2200416897360785e-08 -4.3960659270658717e-08 -1.2200416897360785e-08 7.9520327974187024e+06 -1.7899827367977580e+08 -4.3960659270658717e-08 -1.7899827367977580e+08 4.2263684712092835e+08  1.5382822523216229e+07 -1.2562423175109680e-08 -4.4997821381486060e-08 -1.2562423175109680e-08 1.2625450252664816e+07 -1.9205965521489054e+08 -4.4997821381486060e-08 -1.9205965521489054e+08 4.2385867884798914e+08  9.2162507891903576e+06 -1.1928302412740648e-08 -4.2452510116368740e-08 -1.1928302412740648e-08 1.6545017003437069e+06 -1.6463067090866032e+08 -4.2452510116368740e-08 -1.6463067090866032e+08 4.1384802385496193e+08  1.2589541634197835e+07 -1.2838045689115551e-08 -4.5706582559678005e-08 -1.2838045689115551e-08 7.0980867400909280e+06 -1.8909573985910952e+08 -4.5706582559678005e-08 -1.8909573985910952e+08 4.3441801944921118e+08  1.7146552534543019e+07 -1.2461915450535070e-08 -4.6149169078470948e-08 -1.2461915450535070e-08 1.5513897657403542e+07 -2.0200011971175900e+08 -4.6149169078470948e-08 -2.0200011971175900e+08 4.3347009981315625e+08  7.4427519054194950e+06 -1.2018534531025618e-08 -4.2118167986757878e-08 -1.2018534531025618e-08 -1.6519902216657065e+06 -1.5687165201525697e+08 -4.2118167986757878e-08 -1.5687165201525697e+08 4.1506168743952084e+08  5.7747669992747344e+06 -1.1804765713490474e-08 -4.0596576581064231e-08 -1.1804765713490474e-08 -4.3744290993591854e+06 -1.4359170817272925e+08 -4.0596576581064231e-08 -1.4359170817272925e+08 4.0572282750826484e+08  1.0600247778377185e+07 -1.2536259010272692e-08 -4.5316461710973957e-08 -1.2536259010272692e-08 3.4441688772529289e+06 -1.8443559200260824e+08 -4.5316461710973957e-08 -1.8443559200260824e+08 4.3429375929462045e+08  1.3627378600335181e+07 -1.2918002905592783e-08 -4.6361798660396983e-08 -1.2918002905592783e-08 8.8614342155767120e+06 -1.9518203540234745e+08 -4.6361798660396983e-08 -1.9518203540234745e+08 4.3835036770132464e+08  1.8639771507168274e+07 -1.2972098631707807e-08 -4.5985999464347964e-08 -1.2972098631707807e-08 1.8500867697408460e+07 -2.0278471175126809e+08 -4.5985999464347964e-08 -2.0278471175126809e+08 4.2695471299662822e+08  1.0545854576694049e+07 -1.2123405413177158e-08 -4.3080635313816151e-08 -1.2123405413177158e-08 4.0136782208360936e+06 -1.7112886099705943e+08 -4.3080635313816151e-08 -1.7112886099705943e+08 4.1617751872740722e+08  4.5665947502022684e+06 -1.2193141836128431e-08 -4.1985905958070267e-08 -1.2193141836128431e-08 -7.0346957906129099e+06 -1.4958481409458032e+08 -4.1985905958070267e-08 -1.4958481409458032e+08 4.1758272256906462e+08  -5.0849025510798432e+06 -1.3011095145684486e-08 -3.9731955666385380e-08 -1.3011095145684486e-08 -2.4752847541501712e+07 -1.0543138069784757e+08 -3.9731955666385380e-08 -1.0543138069784757e+08 4.1671985072816581e+08  -5.3910161885823589e+05 -1.2222349881173463e-08 -4.0305059280416641e-08 -1.2222349881173463e-08 -1.6282336210782781e+07 -1.2507611220904714e+08 -4.0305059280416641e-08 -1.2507611220904714e+08 4.1373427785159343e+08  1.3493900610023492e+06 -1.2188991694653017e-08 -4.0681391996622461e-08 -1.2188991694653017e-08 -1.2746994137337022e+07 -1.3353848053902422e+08 -4.0681391996622461e-08 -1.3353848053902422e+08 4.1205069243892479e+08  1.5601985729080554e+07 -1.3058607611208953e-08 -4.7344622576174737e-08 -1.3058607611208953e-08 1.2268511806798471e+07 -2.0426419134541434e+08 -4.7344622576174737e-08 -2.0426419134541434e+08 4.4442311218765587e+08  5.4845725817489596e+06 -1.2410656920574061e-08 -4.3503776373439090e-08 -1.2410656920574061e-08 -5.7073404932571156e+06 -1.6192763058973908e+08 -4.3503776373439090e-08 -1.6192763058973908e+08 4.2734768332956451e+08  -4.3159125596292857e+06 -1.2943375495732282e-08 -4.1113317168751248e-08 -1.2943375495732282e-08 -2.3729643994406871e+07 -1.1700087602740866e+08 -4.1113317168751248e-08 -1.1700087602740866e+08 4.2730054640567094e+08  9.4305279275385812e+06 -1.2545482974536755e-08 -4.5346139399589185e-08 -1.2545482974536755e-08 1.1633195929961009e+06 -1.8088228040780357e+08 -4.5346139399589185e-08 -1.8088228040780357e+08 4.3780089210271651e+08  9.6837915655858871e+06 -1.3094659792953955e-08 -4.6803292230372546e-08 -1.3094659792953955e-08 1.2283243965531278e+06 -1.8854329144485956e+08 -4.6803292230372546e-08 -1.8854329144485956e+08 4.4864427239303058e+08  5.8504499228481250e+05 -1.2420132721049338e-08 -4.2023810443462907e-08 -1.2420132721049338e-08 -1.4488052540013617e+07 -1.4279306429160807e+08 -4.2023810443462907e-08 -1.4279306429160807e+08 4.2112454921054715e+08  3.2389006747341533e+06 -1.2534544418796208e-08 -4.3300088573294662e-08 -1.2534544418796208e-08 -9.8947939949917160e+06 -1.5523430699759647e+08 -4.3300088573294662e-08 -1.5523430699759647e+08 4.2890199099701363e+08  -9.7133344397634398e+06 -1.3540318791441883e-08 -3.9891952696272791e-08 -1.3540318791441883e-08 -3.3610362704936229e+07 -9.2558871198087648e+07 -3.9891952696272791e-08 -9.2558871198087648e+07 4.2606496750213683e+08  -9.2830612176179048e+06 -1.3547987345858993e-08 -4.0401686035766263e-08 -1.3547987345858993e-08 -3.2846738457451720e+07 -9.9554871827732250e+07 -4.0401686035766263e-08 -9.9554871827732250e+07 4.2681419951136959e+08  -3.9173247726286142e+06 -1.2899050067916931e-08 -4.1641212123057440e-08 -1.2899050067916931e-08 -2.2926501858666994e+07 -1.2702680698653027e+08 -4.1641212123057440e-08 -1.2702680698653027e+08 4.2540379862402344e+08  7.4998137100388929e+06 -1.2932692910769325e-08 -4.6481663242258643e-08 -1.2932692910769325e-08 -2.8025504743896807e+06 -1.8328743821410894e+08 -4.6481663242258643e-08 -1.8328743821410894e+08 4.4903315815731937e+08  1.1493518925626455e+07 -1.3142102168331166e-08 -4.6881843068619782e-08 -1.3142102168331166e-08 4.6216508576325383e+06 -1.9208144771434405e+08 -4.6881843068619782e-08 -1.9208144771434405e+08 4.4688409062505645e+08  7.1878079989335537e+06 -1.2738790200177525e-08 -4.4526024277891829e-08 -1.2738790200177525e-08 -2.6713766601965553e+06 -1.7321432865038815e+08 -4.4526024277891829e-08 -1.7321432865038815e+08 4.2995744934630132e+08  7.1601637447422305e+06 -1.2422778606734567e-08 -4.3962243995139181e-08 -1.2422778606734567e-08 -2.6742178095378759e+06 -1.6840617143273306e+08 -4.3962243995139181e-08 -1.6840617143273306e+08 4.2865865922128546e+08  7.9639977427426691e+05 -1.2720897048226240e-08 -4.3364442747199658e-08 -1.2720897048226240e-08 -1.4560135250594104e+07 -1.4903830254386160e+08 -4.3364442747199658e-08 -1.4903830254386160e+08 4.3359227588741928e+08  -1.2450284693867845e+07 -1.4072014333642549e-08 -4.1096437334754610e-08 -1.4072014333642549e-08 -3.8998960090079114e+07 -9.5905581386895761e+07 -4.1096437334754610e-08 -9.5905581386895761e+07 4.3567256066595453e+08  6.9744919584747534e+06 -1.2960238531424796e-08 -4.5893941512508632e-08 -1.2960238531424796e-08 -3.6943887668761644e+06 -1.7598347105725750e+08 -4.5893941512508632e-08 -1.7598347105725750e+08 4.4702258922327262e+08  -9.6782978459348790e+06 -1.3752990768707628e-08 -4.1265388163752165e-08 -1.3752990768707628e-08 -3.3726735650544271e+07 -1.0670527913295285e+08 -4.1265388163752165e-08 -1.0670527913295285e+08 4.3095719588544214e+08  -7.3627743848721990e+06 -1.3512975854918363e-08 -4.2429032535573863e-08 -1.3512975854918363e-08 -2.9737721285554904e+07 -1.2028986588575096e+08 -4.2429032535573863e-08 -1.2028986588575096e+08 4.3824811935890323e+08  -1.2563112726236708e+06 -1.2821591249865269e-08 -4.2442552376378906e-08 -1.2821591249865269e-08 -1.8249485709367901e+07 -1.3564195185945404e+08 -4.2442552376378906e-08 -1.3564195185945404e+08 4.3127114655354393e+08  1.7491644053645397e+06 -1.2882704497634309e-08 -4.4521144407745956e-08 -1.2882704497634309e-08 -1.3041390213520117e+07 -1.5965363624329799e+08 -4.4521144407745956e-08 -1.5965363624329799e+08 4.3990968988109958e+08  9.3033876295568105e+06 -1.3500627164453051e-08 -4.7852323951333803e-08 -1.3500627164453051e-08 1.5704460747159761e+05 -1.9157994983145961e+08 -4.7852323951333803e-08 -1.9157994983145961e+08 4.5870438856980073e+08  1.4673703458034154e+07 -1.2941380515480566e-08 -4.7138069764810275e-08 -1.2941380515480566e-08 1.0514484311285382e+07 -2.0035477983363727e+08 -4.7138069764810275e-08 -2.0035477983363727e+08 4.4568962520025718e+08  3.6578636018114858e+06 -1.2843566476228333e-08 -4.4800800194908873e-08 -1.2843566476228333e-08 -9.5230863911025990e+06 -1.6541983556885988e+08 -4.4800800194908873e-08 -1.6541983556885988e+08 4.3969273942384195e+08  1.3597980836098535e+07 -1.3135877921890731e-08 -4.7677556332321746e-08 -1.3135877921890731e-08 8.1606923502579164e+06 -1.9693465712124944e+08 -4.7677556332321746e-08 -1.9693465712124944e+08 4.5584755323111796e+08  -6.2393158338470114e+06 -1.3426232261482719e-08 -4.3353159237954086e-08 -1.3426232261482719e-08 -2.7926154075994324e+07 -1.2888205643013319e+08 -4.3353159237954086e-08 -1.2888205643013319e+08 4.4513653195261824e+08  6.4643937839651192e+06 -1.3441995447859152e-08 -4.7638827530910009e-08 -1.3441995447859152e-08 -5.0879951852906737e+06 -1.8652066584686658e+08 -4.7638827530910009e-08 -1.8652066584686658e+08 4.5934791006191665e+08  1.3006694457057418e+07 -1.3324494486093778e-08 -4.8254882624833328e-08 -1.3324494486093778e-08 7.0229720123314876e+06 -2.0242025121428633e+08 -4.8254882624833328e-08 -2.0242025121428633e+08 4.5720728276925504e+08  -1.7828492504474637e+05 -1.2980978022670258e-08 -4.4403824923057789e-08 -1.2980978022670258e-08 -1.6657920585197758e+07 -1.5425607429240006e+08 -4.4403824923057789e-08 -1.5425607429240006e+08 4.4185148941328365e+08  -2.0271455962888957e+06 -1.2867140544404517e-08 -4.3461649006704729e-08 -1.2867140544404517e-08 -1.9900952843111154e+07 -1.4399860048438245e+08 -4.3461649006704729e-08 -1.4399860048438245e+08 4.3759796729595047e+08  -9.2364080038122032e+06 -1.3672655779200830e-08 -4.2442425891494882e-08 -1.3672655779200830e-08 -3.3318846083268754e+07 -1.1483112368418379e+08 -4.2442425891494882e-08 -1.1483112368418379e+08 4.4190987871383876e+08  5.0762052444833526e+06 -1.2918273333008539e-08 -4.5314250190286757e-08 -1.2918273333008539e-08 -6.9948668024225738e+06 -1.7130782614643341e+08 -4.5314250190286757e-08 -1.7130782614643341e+08 4.4186416318814677e+08  -9.4493766541271210e+06 -1.4101049024929994e-08 -4.3624096690375188e-08 -1.4101049024929994e-08 -3.3954222651326008e+07 -1.2290700629658227e+08 -4.3624096690375188e-08 -1.2290700629658227e+08 4.4850385373162025e+08  4.9712015960510103e+06 -1.3454414207307020e-08 -4.7794110945823008e-08 -1.3454414207307020e-08 -8.0281236150991833e+06 -1.8300172815288544e+08 -4.7794110945823008e-08 -1.8300172815288544e+08 4.6459140278165478e+08  -2.5146419420253700e+06 -1.3178363365835585e-08 -4.4484740429563833e-08 -1.3178363365835585e-08 -2.1084845798310157e+07 -1.4935305434947240e+08 -4.4484740429563833e-08 -1.4935305434947240e+08 4.4537266078375947e+08  -3.7009564587261900e+06 -1.3260883013075197e-08 -4.3470819925515140e-08 -1.3260883013075197e-08 -2.3143268187067620e+07 -1.3620504425654200e+08 -4.3470819925515140e-08 -1.3620504425654200e+08 4.4203579235525805e+08  -1.2337044572206074e+07 -1.4222758929192437e-08 -4.1678420518866998e-08 -1.4222758929192437e-08 -3.8872235411555864e+07 -1.0140218289975095e+08 -4.1678420518866998e-08 -1.0140218289975095e+08 4.3787869229020196e+08  -1.4540733271171344e+07 -1.4583120824125016e-08 -4.2212563290534576e-08 -1.4583120824125016e-08 -4.3218264347460248e+07 -9.8025454888146773e+07 -4.2212563290534576e-08 -9.8025454888146773e+07 4.4581292324461883e+08  9.6740789894489106e+06 -1.3657213418990202e-08 -4.8528481623753601e-08 -1.3657213418990202e-08 7.0571700242004509e+05 -1.9730753387706539e+08 -4.8528481623753601e-08 -1.9730753387706539e+08 4.6230219750553608e+08  4.1728737220951226e+06 -1.3332765221514217e-08 -4.6908160942329928e-08 -1.3332765221514217e-08 -9.1907757144248113e+06 -1.779274410587