<?xml version="1.0"?>
<VTKFile type="UnstructuredGrid"  version="0.1"  >
<UnstructuredGrid>
<Piece  NumberOfPoints="10255" NumberOfCells="20084">
<Points>
<DataArray  type="Float64"  NumberOfComponents="3"  format="ascii">3.844048242159513e-23 9.668024050202114e-07 6.806132040053538e-08  3.847771034822294e-23 9.669985028792288e-07 6.792209890657517e-08  3.846275168462127e-23 9.667995157296344e-07 6.785784742062565e-08  3.849515485966175e-23 9.66881460186319e-07 6.764793002323432e-08  3.826261808533084e-23 9.671368147404781e-07 6.999778963784674e-08  3.827047817448044e-23 9.673487965730955e-07 7.013897408133369e-08  3.829712155069505e-23 9.67289615477493e-07 6.983981078734716e-08  3.827842198569474e-23 9.6702762487079e-07 6.97462508885789e-08  3.830685169615466e-23 9.669963435244612e-07 6.945889747538301e-08  3.833147330156461e-23 9.6697145459291e-07 6.92122368379328e-08  3.829799937986237e-23 9.667855146597201e-07 6.93278031873525e-08  3.835151956772123e-23 9.672196735068342e-07 6.927989503827068e-08  3.831765008692744e-23 9.672173958076393e-07 6.958268650124011e-08  3.823134268333262e-23 9.670860999899879e-07 7.022877866492658e-08  3.851763327231582e-23 9.671399826065241e-07 6.770398490173397e-08  3.844872647732786e-23 9.669672589419473e-07 6.815191846961932e-08  3.843582551562757e-23 9.666514244242841e-07 6.795228548456842e-08  3.823260119216773e-23 9.67300062859279e-07 7.043140589437603e-08  3.820536825621054e-23 9.671037125959562e-07 7.048034811151126e-08  3.853792223775423e-23 9.670839790148847e-07 6.746523455571831e-08  3.823838481073238e-23 9.669262018540541e-07 7.00054506843259e-08  3.852378275260632e-23 9.668509967921981e-07 6.735960949311835e-08  3.831298354381371e-23 9.675249312272394e-07 6.993225440449647e-08  3.827228454833497e-23 9.668080369235606e-07 6.958194406256246e-08  3.848314957974162e-23 9.666363215251921e-07 6.75109253104571e-08  3.855876557599983e-23 9.670435346494902e-07 6.723705008961174e-08  3.855895812834488e-23 9.668573543793815e-07 6.704913546216421e-08  3.845718954166323e-23 9.666406440882543e-07 6.774907510915194e-08  3.819018927463628e-23 9.671885223965661e-07 7.070187802364459e-08  3.840393858508891e-23 9.66582046434885e-07 6.817011943215308e-08  3.841667390037991e-23 9.668187823471801e-07 6.829214582205028e-08  3.835168078156165e-23 9.673946863482041e-07 6.945345579445738e-08  3.833439869990552e-23 9.668049949853972e-07 6.901942758466391e-08  3.836743775552862e-23 9.670973061213436e-07 6.901414936342462e-08  3.833317083353102e-23 9.6745123705859e-07 6.967672929495003e-08  3.850537837935407e-23 9.672590983930806e-07 6.793348295104243e-08  3.838097640111035e-23 9.66977078191895e-07 6.877197615558203e-08  3.820285047731837e-23 9.668149747664341e-07 7.021428841815029e-08  3.838331428892171e-23 9.674856659373121e-07 6.925950607964695e-08  3.824765165955912e-23 9.66815075548659e-07 6.981085602508482e-08  3.835771632846801e-23 9.667253825637828e-07 6.872978863643911e-08  3.822697846726142e-23 9.674503969019602e-07 7.063238494064292e-08  3.839376310420903e-23 9.673528814796281e-07 6.903260706069408e-08  3.819601179172463e-23 9.669304191413517e-07 7.039133019685132e-08  3.821376019694659e-23 9.666854386434889e-07 6.998648627670042e-08  3.837038278196857e-23 9.676018903122847e-07 6.949220711441053e-08  3.837884713353962e-23 9.666509173959273e-07 6.846499409689057e-08  3.835182831277372e-23 9.676902387322564e-07 6.974767933548623e-08  3.817293324540677e-23 9.669384667312641e-07 7.060725085195835e-08  3.839818474268019e-23 9.668918098756168e-07 6.853170887794066e-08  3.855504150302931e-23 9.673252921870794e-07 6.75523510944855e-08  3.853509733135734e-23 9.673458283233864e-07 6.775252835901275e-08  3.841981839919249e-23 9.664716878022997e-07 6.791672814980867e-08  3.826007096790913e-23 9.665915923766999e-07 6.947550966821106e-08  3.829090697536132e-23 9.665855197196831e-07 6.919169094785173e-08  3.823453767808358e-23 9.666200788689649e-07 6.973397958956387e-08  3.844421604978596e-23 9.66440006792875e-07 6.766529264014101e-08  3.847204503616063e-23 9.671672698685726e-07 6.814189449050439e-08  3.816785278456588e-23 9.66734969428055e-07 7.044951427184908e-08  3.853304329209096e-23 9.674903202653027e-07 6.791552144187833e-08  3.859258127140898e-23 9.671449879196127e-07 6.703391865324638e-08  3.86038071682052e-23 9.670175866532766e-07 6.680540349765351e-08  3.836238504346035e-23 9.664162595860557e-07 6.837861361251244e-08  3.840860029587257e-23 9.672422913669012e-07 6.878837540627293e-08  3.856338911215014e-23 9.675297364428832e-07 6.768160677163732e-08  3.843588311980644e-23 9.670409665772654e-07 6.834130878523278e-08  3.833923268945905e-23 9.664820219358116e-07 6.865291382797435e-08  3.831778228088765e-23 9.665490014466125e-07 6.891310144287344e-08  3.814903584378647e-23 9.669512017886719e-07 7.083523456743073e-08  3.815444185441888e-23 9.671458923815153e-07 7.098123214533488e-08  3.819233248516805e-23 9.673835321967239e-07 7.087758349949779e-08  3.829493150785181e-23 9.675846055566055e-07 7.015452701872513e-08  3.826217979264891e-23 9.67517160841688e-07 7.038208352857474e-08  3.858228399677651e-23 9.673003103820363e-07 6.728199072006539e-08  3.862937911340422e-23 9.672707607843613e-07 6.68282460229993e-08  3.864125381110167e-23 9.671868681519287e-07 6.663739562231604e-08  3.953330702206321e-23 9.891795424637936e-07 8.059516891721879e-08  3.954235706843712e-23 9.890355852315782e-07 8.036969611404897e-08  3.950403264943381e-23 9.889468291076021e-07 8.062613566835783e-08  3.94973099082713e-23 9.891076516889951e-07 8.084751131893965e-08  3.946853893286052e-23 9.888712691696455e-07 8.087027470786821e-08  3.951200604316462e-23 9.887860506967354e-07 8.039353931142125e-08  3.955432016789495e-23 9.889041309280247e-07 8.01304877899745e-08  3.956902937136678e-23 9.887936485164883e-07 7.988751665188885e-08  3.952684913003707e-23 9.886627881296539e-07 8.013658210332421e-08  3.94759362160976e-23 9.887168303575267e-07 8.064920709168922e-08  3.945956186996179e-23 9.890430081010247e-07 8.112287183349854e-08  3.943352515702075e-23 9.88776471694617e-07 8.109085328848934e-08  3.954268678023316e-23 9.885607132974852e-07 7.989185440011241e-08  3.94399040341712e-23 9.886405611070307e-07 8.089748688338737e-08  3.948216829374343e-23 9.885417441750713e-07 8.041798734410678e-08  3.959079770704154e-23 9.88710536534797e-07 7.960833293333076e-08  3.966279752076215e-23 9.88602179779903e-07 7.885145950995099e-08  3.969324389136989e-23 9.88617012076978e-07 7.859205528037846e-08  3.965626451454869e-23 9.884068546473727e-07 7.871497846611792e-08  3.944510570002654e-23 9.88496462664786e-07 8.070653600032705e-08  3.963277302582222e-23 9.887672356166279e-07 7.928695195512288e-08  3.95939985956376e-23 9.885286875015358e-07 7.939765285869269e-08  3.940610246418789e-23 9.885506634720076e-07 8.11120467243271e-08  3.955641062893041e-23 9.884501721640697e-07 7.965769982693882e-08  3.966762204717117e-23 9.887950432917326e-07 7.900086755110492e-08  3.962850953194374e-23 9.885678543747835e-07 7.912597285216337e-08  3.950183351618427e-23 9.8843034427285e-07 8.012945886497203e-08  3.95160993136316e-23 9.883320294362482e-07 7.990264914823441e-08  3.968650329297324e-23 9.884270763208198e-07 7.846283343707506e-08  3.941008928453145e-23 9.884163554354434e-07 8.094182860253557e-08  3.962431456735118e-23 9.883773950478923e-07 7.897329840722394e-08  3.971488282188316e-23 9.884230719834517e-07 7.820320902805972e-08  3.967942245529275e-23 9.882375517623335e-07 7.833708739446747e-08  3.952804208618856e-23 9.882281852076592e-07 7.969123398757085e-08  3.95617592674575e-23 9.88312479028062e-07 7.947183043797603e-08  3.959338149888106e-23 9.883504359436013e-07 7.922495961420378e-08  3.944608100249588e-23 9.883548797685029e-07 8.055616836036899e-08  3.965101833878736e-23 9.882279805352573e-07 7.858335770441016e-08  3.947721808733972e-23 9.88199328232216e-07 8.012015889668181e-08  3.946268836069749e-23 9.882866445387155e-07 8.033834734616479e-08  3.97033961091929e-23 9.882103996036781e-07 7.809399975826917e-08  3.973993359343305e-23 9.884021237809149e-07 7.79566235346881e-08  3.937480819176745e-23 9.883329245796995e-07 8.117618157924199e-08  3.94901158908498e-23 9.880927187342763e-07 7.989737631257835e-08  3.941416346171646e-23 9.882716987292608e-07 8.076047497064845e-08  3.961845715975573e-23 9.881826574388997e-07 7.883131963555974e-08  3.945237277666738e-23 9.879580754138897e-07 8.010269274212722e-08  3.953477614883753e-23 9.881243293723525e-07 7.952672310819092e-08  3.950330301602644e-23 9.880003366207952e-07 7.968621513503403e-08  3.964774331540478e-23 9.8806811094983e-07 7.845298690715369e-08  3.97275425334606e-23 9.881845458003283e-07 7.785065430025071e-08  3.958661184191572e-23 9.881478116267631e-07 7.908331094653868e-08  3.937877544124881e-23 9.881838171828358e-07 8.099134037580647e-08  3.955925455856533e-23 9.881370178745037e-07 7.931892969648473e-08  3.966557826672814e-23 9.880203691225144e-07 7.824460211956996e-08  3.942375042586958e-23 9.881500989773127e-07 8.05525235223251e-08  3.94679314694925e-23 9.878697800372506e-07 7.987425711906895e-08  3.961264388966963e-23 9.879711670549926e-07 7.867219053363974e-08  3.943864860065279e-23 9.880565823686975e-07 8.032481608490566e-08  3.934155539547587e-23 9.882868312539529e-07 8.142960281547089e-08  3.934292586662904e-23 9.881052450431472e-07 8.12356724979158e-08  3.952058660148092e-23 9.879355793583202e-07 7.946578117453421e-08  3.938616452956326e-23 9.880410503124971e-07 8.078201851470861e-08  3.939841727696638e-23 9.879215961802921e-07 8.055220144522568e-08  3.968808479545972e-23 9.879784176287742e-07 7.799992983701197e-08  3.957697056454276e-23 9.879362707920605e-07 7.895861101820457e-08  3.930580782493378e-23 9.880556178357165e-07 8.152037488798016e-08  3.962987653108e-23 9.878776521960197e-07 7.842345783979816e-08  3.948373546682379e-23 9.877823561914973e-07 7.964448352033135e-08  3.94294458385861e-23 9.87732373659242e-07 8.008349848707879e-08  3.94143142459661e-23 9.878240034690913e-07 8.03114
[...]
<PointData  Vectors="f_25"> 
<DataArray  type="Float64"  Name="f_25"  NumberOfComponents="3" format="ascii">0.0000000000000000e+00 4.6193669293651211e-10 1.1996293661030774e-10  0.0000000000000000e+00 4.6536362765529309e-10 1.1865542426873346e-10  0.0000000000000000e+00 4.6189786777296179e-10 1.1833092770737872e-10  0.0000000000000000e+00 4.6333953836021529e-10 1.1657051935830157e-10  0.0000000000000000e+00 4.6766316436633080e-10 1.3528324350120072e-10  0.0000000000000000e+00 4.7135608145984849e-10 1.3617996387133034e-10  0.0000000000000000e+00 4.7033574201162156e-10 1.3381951463251485e-10  0.0000000000000000e+00 4.6577027488151550e-10 1.3336077726859001e-10  0.0000000000000000e+00 4.6523898115167095e-10 1.3105917458050415e-10  0.0000000000000000e+00 4.6481764627705613e-10 1.2908508575160021e-10  0.0000000000000000e+00 4.6157217781569371e-10 1.3022063923093580e-10  0.0000000000000000e+00 4.6914297823251721e-10 1.2936092193663022e-10  0.0000000000000000e+00 4.6908766591767823e-10 1.3181632770062283e-10  0.0000000000000000e+00 4.6677011595547005e-10 1.3722678204374872e-10  0.0000000000000000e+00 4.6784610314333233e-10 1.1677091729656049e-10  0.0000000000000000e+00 4.6480477090042641e-10 1.2053122153397620e-10  0.0000000000000000e+00 4.5931231845487613e-10 1.1922820601581272e-10  0.0000000000000000e+00 4.7049402608401547e-10 1.3862279833609326e-10  0.0000000000000000e+00 4.6706878763723541e-10 1.3926171844844826e-10  0.0000000000000000e+00 4.6688390357631098e-10 1.1491762309616296e-10  0.0000000000000000e+00 4.6399163966545986e-10 1.3558779750685410e-10  0.0000000000000000e+00 4.6282712316462064e-10 1.1429109571749032e-10  0.0000000000000000e+00 4.7444029237844144e-10 1.3428607797055687e-10  0.0000000000000000e+00 4.6195215397571572e-10 1.3226444091824862e-10  0.0000000000000000e+00 4.5907574970792027e-10 1.1569591797457735e-10  0.0000000000000000e+00 4.6619395920527680e-10 1.1313519623287439e-10  0.0000000000000000e+00 4.6295895627933555e-10 1.1180602459916734e-10  0.0000000000000000e+00 4.5913690759214725e-10 1.1760363248547984e-10  0.0000000000000000e+00 4.6853883437508883e-10 1.4097286620337579e-10  0.0000000000000000e+00 4.5809166943291316e-10 1.2104770174193610e-10  0.0000000000000000e+00 4.6220790277903202e-10 1.2180575843151597e-10  0.0000000000000000e+00 4.7218869752379327e-10 1.3056474480208265e-10  0.0000000000000000e+00 4.6192727260324887e-10 1.2769746852973403e-10  0.0000000000000000e+00 4.6702281380917097e-10 1.2734679503121756e-10  0.0000000000000000e+00 4.7316487580875635e-10 1.3230516701816581e-10  0.0000000000000000e+00 4.6991096899206188e-10 1.1848789574555472e-10  0.0000000000000000e+00 4.6493931855587564e-10 1.2551725093693243e-10  0.0000000000000000e+00 4.6204711821282957e-10 1.3742140539324402e-10  0.0000000000000000e+00 4.7378855365723993e-10 1.2889300650547073e-10  0.0000000000000000e+00 4.6206488560778734e-10 1.3412272852576072e-10  0.0000000000000000e+00 4.6055646504895703e-10 1.2543185928626831e-10  0.0000000000000000e+00 4.7311120165597919e-10 1.4007441972483119e-10  0.0000000000000000e+00 4.7148162733792903e-10 1.2721479310658823e-10  0.0000000000000000e+00 4.6405167093608055e-10 1.3873811738818797e-10  0.0000000000000000e+00 4.5980066988909291e-10 1.3569957864329726e-10  0.0000000000000000e+00 4.7580657468007495e-10 1.3063278910088005e-10  0.0000000000000000e+00 4.5927426445235115e-10 1.2336319285579179e-10  0.0000000000000000e+00 4.7733834437063529e-10 1.3258782950987311e-10  0.0000000000000000e+00 4.6418395857049770e-10 1.4049927242166155e-10  0.0000000000000000e+00 4.6346667412287187e-10 1.2366489615558492e-10  0.0000000000000000e+00 4.7109191255118993e-10 1.1537795269286182e-10  0.0000000000000000e+00 4.7143746586968266e-10 1.1695390565947902e-10  0.0000000000000000e+00 4.5618532840645763e-10 1.1910482960067338e-10  0.0000000000000000e+00 4.5818955950341225e-10 1.3162455918275042e-10  0.0000000000000000e+00 4.5809752716179966e-10 1.2931910804756684e-10  0.0000000000000000e+00 4.5867394098595706e-10 1.3370447300631654e-10  0.0000000000000000e+00 4.5564839284647602e-10 1.1710863914379542e-10  0.0000000000000000e+00 4.6829411217526410e-10 1.2025016659929993e-10  0.0000000000000000e+00 4.6064564820123420e-10 1.3943996287716727e-10  0.0000000000000000e+00 4.7395154621297099e-10 1.1810592285224360e-10  0.0000000000000000e+00 4.6797951705517147e-10 1.1142360626233847e-10  0.0000000000000000e+00 4.6577083595963056e-10 1.0972256815498311e-10  0.0000000000000000e+00 4.5519473512167905e-10 1.2288538839374769e-10  0.0000000000000000e+00 4.6956464026555297e-10 1.2536833868271940e-10  0.0000000000000000e+00 4.7465617983528108e-10 1.1620044341554377e-10  0.0000000000000000e+00 4.6607824464400188e-10 1.2198043640071071e-10  0.0000000000000000e+00 4.5632439661764874e-10 1.2504556499280910e-10  0.0000000000000000e+00 4.5747607762180147e-10 1.2709168000871464e-10  0.0000000000000000e+00 4.6439837116740139e-10 1.4235667408875244e-10  0.0000000000000000e+00 4.6778742240299481e-10 1.4331738563729850e-10  0.0000000000000000e+00 4.7193625402591138e-10 1.4216476770647575e-10  0.0000000000000000e+00 4.7547421862869780e-10 1.3601442166782720e-10  0.0000000000000000e+00 4.7428626898135908e-10 1.3794915216921458e-10  0.0000000000000000e+00 4.7067421109937238e-10 1.1324953427195767e-10  0.0000000000000000e+00 4.7019045114633972e-10 1.0967314430551439e-10  0.0000000000000000e+00 4.6873895572495068e-10 1.0823657693138996e-10  0.0000000000000000e+00 6.8179303535271266e-10 1.2406076371780197e-10  0.0000000000000000e+00 6.8156263848129954e-10 1.2404714474769802e-10  0.0000000000000000e+00 6.8230335568790549e-10 1.2541220836406555e-10  0.0000000000000000e+00 6.8250730257522627e-10 1.2530777256973924e-10  0.0000000000000000e+00 6.8300313751330477e-10 1.2666768308930539e-10  0.0000000000000000e+00 6.8210038705720264e-10 1.2545145620045327e-10  0.0000000000000000e+00 6.8130172241997285e-10 1.2389648841955735e-10  0.0000000000000000e+00 6.8101425082455516e-10 1.2360101273659137e-10  0.0000000000000000e+00 6.8179642246848752e-10 1.2518084894820864e-10  0.0000000000000000e+00 6.8279930676988461e-10 1.2672750308458123e-10  0.0000000000000000e+00 6.8327463754533962e-10 1.2659606245126171e-10  0.0000000000000000e+00 6.8369691527609680e-10 1.2795019706426003e-10  0.0000000000000000e+00 6.8149878828274302e-10 1.2482142507132148e-10  0.0000000000000000e+00 6.8350809526427215e-10 1.2801765383184834e-10  0.0000000000000000e+00 6.8263794181017688e-10 1.2683774174326570e-10  0.0000000000000000e+00 6.8061924310731203e-10 1.2301254088978946e-10  0.0000000000000000e+00 6.7941852830285791e-10 1.2073978912870748e-10  0.0000000000000000e+00 6.7892676842633514e-10 1.1968589175963316e-10  0.0000000000000000e+00 6.7960462283693866e-10 1.2117262738999749e-10  0.0000000000000000e+00 6.8336051357910412e-10 1.2811945609537924e-10  0.0000000000000000e+00 6.7987553227431456e-10 1.2154668051649636e-10  0.0000000000000000e+00 6.8059006654897801e-10 1.2315515420111017e-10  0.0000000000000000e+00 6.8417670164493218e-10 1.2926818774997688e-10  0.0000000000000000e+00 6.8126192325153072e-10 1.2452384891529605e-10  0.0000000000000000e+00 6.7927805192458661e-10 1.2035218208486603e-10  0.0000000000000000e+00 6.7999434677498615e-10 1.2194212974405393e-10  0.0000000000000000e+00 6.8225474996002956e-10 1.2637436173713081e-10  0.0000000000000000e+00 6.8199732220685095e-10 1.2604667940351268e-10  0.0000000000000000e+00 6.7912563631376300e-10 1.2010407945750399e-10  0.0000000000000000e+00 6.8404642128051334e-10 1.2940084388767547e-10  0.0000000000000000e+00 6.8012807982428423e-10 1.2230653222266971e-10  0.0000000000000000e+00 6.7870035720232772e-10 1.1911736948911122e-10  0.0000000000000000e+00 6.7934349876206965e-10 1.2052154495682869e-10  0.0000000000000000e+00 6.8179971939478447e-10 1.2578865877633025e-10  0.0000000000000000e+00 6.8119477074195542e-10 1.2452803878619862e-10  0.0000000000000000e+00 6.8064740859500236e-10 1.2340005010652907e-10  0.0000000000000000e+00 6.8331367935401965e-10 1.2833889248655490e-10  0.0000000000000000e+00 6.7977854851191020e-10 1.2153023796555521e-10  0.0000000000000000e+00 6.8271644225867928e-10 1.2755365846509465e-10  0.0000000000000000e+00 6.8298798751068636e-10 1.2790365190825503e-10  0.0000000000000000e+00 6.7900928613251814e-10 1.1969284457051739e-10  0.0000000000000000e+00 6.7834804027465250e-10 1.1825354572662213e-10  0.0000000000000000e+00 6.8474669827781061e-10 1.3070193731668232e-10  0.0000000000000000e+00 6.8249455388931441e-10 1.2727093996695133e-10  0.0000000000000000e+00 6.8392791241071691e-10 1.2953446964854631e-10  0.0000000000000000e+00 6.8030766022063349e-10 1.2271755526936776e-10  0.0000000000000000e+00 6.8319301891157952e-10 1.2875769712560245e-10  0.0000000000000000e+00 6.8170785807150553e-10 1.2569400204752929e-10  0.0000000000000000e+00 6.8228271241968250e-10 1.2694163485838505e-10  0.0000000000000000e+00 6.7992427309162648e-10 1.2178994273202941e-10  0.0000000000000000e+00 6.7868515787932988e-10 1.1884774714023765e-10  0.0000000000000000e+00 6.8083344086105183e-10 1.2386765835147668e-10  0.0000000000000000e+00 6.8461883687586752e-10 1.3085807907219129e-10  0.0000000000000000e+00 6.8128875369538518e-10 1.2483177535335845e-10  0.0000000000000000e+00 6.7969313524563879e-10 1.2119057115353961e-10  0.0000000000000000e+00 6.8372303628061080e-10 1.2942743360789630e-10  0.0000000000000000e+00 6.8293169457464981e-10 1.2834297709024838e-10  0.0000000000000000e+00 6.8051359970262461e-10 1.2312684309123372e-10  0.0000000000000000e+00 6.8343778613054644e-10 1.2907753024281622e-10  0.0000000000000000e+00 6.8542893687418415e-10 1.3186633373054384e-10  0.0000000000000000e+00 6.8533125579269582e-10 1.3218459418640291e-10  0.0000000000000000e+00 6.8200731068517822e-10 1.2642031372584391e-10  0.0000000000000000e+00 6.8444310869239171e-10 1.3087045232805080e-10  0.0000000000000000e+00 6.8419697026332615e-10 1.3065803705481619e-10  0.0000000000000000e+00 6.7940223068412837e-10 1.2040814959042427e-10  0.0000000000000000e+00 6.8108724699884142e-10 1.2443020165885221e-10  0.0000000000000000e+00 6.8609258741002793e-10 1.3349901672464569e-10  0.0000000000000000e+00 6.8031646314755213e-10 1.2258858395844260e-10  0.0000000000000000e+00 6.8268342053554464e-10 1.2790205278249377e-10  0.0000000000000000e+00 6.8364324980806342e-10 1.2987340275213013e-10  0.0000000000000000e+00 6.8390362465781451e-10 1.3026613857609494e-10  0.0000000000000000e+00 6.7908823844200128e-10 1.1953412591358570e-10  0.0000000000000000e+00 6.7838596147262775e-10 1.1800826530680466e-10  0.0000000000000000e+00 6.7877689268151845e-10 1.1862040440943453e-10  0.0000000000000000e+00 6.8494806985916680e-10 1.3218202991178680e-10  0.0000000000000000e+00 6.8088281869609026e-10 1.2386700863263860e-10  0.0000000000000000e+00 6.7977984390630400e-10 1.2104730432091351e-10  0.0000000000000000e+00 6.8600400408713295e-10 1.3389396534382253e-10  0.0000000000000000e+00 6.8158368041258145e-10 1.2552625806208898e-10  0.0000000000000000e+00 6.8516358406225696e-10 1.3227419137674455e-10  0.0000000000000000e+00 6.8016246016558745e-10 1.2208719412162361e-10  0.0000000000000000e+00 6.8683584886322926e-10 1.3527755008467421e-10  0.0000000000000000e+00 6.8336725067230194e-10 1.2939180327916815e-10  0.0000000000000000e+00 6.8236499268273885e-10 1.2725048968490748e-10  0.0000000000000000e+00 6.8134556903716957e-10 1.2495024283017096e-10  0.0000000000000000e+00 6.8311079084850154e-10 1.2889115251149838e-10  0.0000000000000000e+00 6.7946724731923211e-10 1.2013198527259014e-10  0.0000000000000000e+00 6.8407556256249609e-10 1.3093071945172624e-10  0.0000000000000000e+00 6.8199467793144566e-10 1.2642995840172366e-10  0.0000000000000000e+00 6.8081177989932521e-10 1.2359551129489748e-10  0.0000000000000000e+00 6.8465993347337429e-10 1.3185392908939752e-10  0.0000000000000000e+00 6.7847281170961611e-10 1.1769407551066480e-10  0.0000000000000000e+00 6.7915374832585565e-10 1.1918281599563814e-10  0.0000000000000000e+00 6.7888753321530923e-10 1.1829191006927769e-10  0.0000000000000000e+00 6.8433919453959899e-10 1.3136738186649487e-10  0.0000000000000000e+00 6.8550948186666964e-10 1.3362976561434823e-10  0.0000000000000000e+00 6.8562755572092472e-10 1.3352104508939258e-10  0.0000000000000000e+00 6.8145496439383714e-10 1.2508262902809737e-10  0.0000000000000000e+00 6.8382741754128885e-10 1.3046683082644792e-10  0.0000000000000000e+00 6.8015220227310396e-10 1.2163275445357257e-10  0.0000000000000000e+00 6.8078500623248522e-10 1.2338591141333610e-10  0.0000000000000000e+00 6.8282909021208093e-10 1.2828299801694123e-10  0.0000000000000000e+00 6.8047590769643961e-10 1.2256177140149551e-10  0.0000000000000000e+00 6.8203992166920758e-10 1.2645031517145603e-10  0.0000000000000000e+00 6.8137375782170877e-10 1.2473165169759788e-10  0.0000000000000000e+00 6.8627478454502354e-10 1.3482491254417527e-10  0.0000000000000000e+00 6.8360192004430035e-10 1.2999770379996760e-10  0.0000000000000000e+00 6.8452546111698143e-10 1.3199888909011022e-10  0.0000000000000000e+00 6.7985475227175503e-10 1.2071404085955361e-10  0.0000000000000000e+00 6.8509656115139728e-10 1.3298488712780726e-10  0.0000000000000000e+00 6.8690508121476246e-10 1.3596228502164464e-10  0.0000000000000000e+00 6.8767581187458007e-10 1.3726768644378300e-10  0.0000000000000000e+00 6.7866184142034660e-10 1.1743325592909203e-10  0.0000000000000000e+00 6.7935287645350442e-10 1.1895818462231306e-10  0.0000000000000000e+00 6.7958411803531566e-10 1.1981861904903870e-10  0.0000000000000000e+00 6.8477023137686167e-10 1.3243954479096008e-10  0.0000000000000000e+00 6.8114665665996926e-10 1.2403369712896399e-10  0.0000000000000000e+00 6.8610453398652867e-10 1.3473008811894070e-10  0.0000000000000000e+00 6.8587481164021080e-10 1.3467295356669467e-10  0.0000000000000000e+00 6.8429910197045240e-10 1.3154416788969892e-10  0.0000000000000000e+00 6.8266802881066327e-10 1.2788554237240918e-10  0.0000000000000000e+00 6.7846554436066191e-10 1.1658921824572505e-10  0.0000000000000000e+00 6.7913321650716936e-10 1.1808640712006635e-10  0.0000000000000000e+00 6.7828810308238811e-10 1.1575993520710959e-10  0.0000000000000000e+00 6.7892164702182024e-10 1.1718175632430576e-10  0.0000000000000000e+00 6.8209716204281984e-10 1.2640716811734353e-10  0.0000000000000000e+00 6.8056274408611018e-10 1.2226472817635482e-10  0.0000000000000000e+00 6.8183019311953883e-10 1.2557961055944473e-10  0.0000000000000000e+00 6.8338668923385528e-10 1.2949793195730558e-10  0.0000000000000000e+00 6.8547796680284648e-10 1.3397211114056972e-10  0.0000000000000000e+00 6.8502839233418222e-10 1.3316050034318130e-10  0.0000000000000000e+00 6.7876084118112898e-10 1.1634753818482552e-10  0.0000000000000000e+00 6.8640540919649261e-10 1.3563621864930114e-10  0.0000000000000000e+00 6.8826228693515327e-10 1.3884606268617339e-10  0.0000000000000000e+00 6.8763010016631951e-10 1.3780337531384400e-10  0.0000000000000000e+00 6.8679437764113704e-10 1.3616901158767146e-10  0.0000000000000000e+00 6.7980128470673997e-10 1.1956759181267367e-10  0.0000000000000000e+00 6.8026870809101967e-10 1.2132074019041552e-10  0.0000000000000000e+00 6.8001702402004221e-10 1.2041932003701856e-10  0.0000000000000000e+00 6.8521510494066959e-10 1.3351094993586140e-10  0.0000000000000000e+00 6.8086970298524515e-10 1.2320667272468019e-10  0.0000000000000000e+00 6.8159199754249576e-10 1.2480463672965740e-10  0.0000000000000000e+00 6.8271476673726338e-10 1.2788462077267735e-10  0.0000000000000000e+00 6.7961631384091854e-10 1.1874059272504056e-10  0.0000000000000000e+00 6.8244812217022989e-10 1.2698618371474344e-10  0.0000000000000000e+00 6.8482441902606872e-10 1.3271275917223304e-10  0.0000000000000000e+00 6.8410495380715840e-10 1.3110445286043914e-10  0.0000000000000000e+00 6.8613023470774354e-10 1.3539506805720302e-10  0.0000000000000000e+00 6.8323203954920675e-10 1.2909235182501038e-10  0.0000000000000000e+00 6.8291497781674210e-10 1.2816835074586157e-10  0.0000000000000000e+00 6.8096954391348536e-10 1.2285740452497985e-10  0.0000000000000000e+00 6.8028711171187115e-10 1.2022771828939061e-10  0.0000000000000000e+00 6.8593318077168396e-10 1.3508008656942782e-10  0.0000000000000000e+00 6.8553813302829999e-10 1.3431048147221752e-10  0.0000000000000000e+00 6.8390174284406716e-10 1.3058920411309228e-10  0.0000000000000000e+00 6.8127032157343168e-10 1.2382306513078552e-10  0.0000000000000000e+00 6.8858399734639120e-10 1.3990898900251449e-10  0.0000000000000000e+00 6.8675426511772497e-10 1.3665839420049699e-10  0.0000000000000000e+00 6.8240769242116455e-10 1.2663249734678975e-10  0.0000000000000000e+00 6.7944105090730030e-10 1.1786881693703926e-10  0.0000000000000000e+00 6.8048063610283602e-10 1.2106629923810468e-10  0.0000000000000000e+00 6.8570193960869516e-10 1.3464809736865713e-10  0.0000000000000000e+00 6.7926644969405410e-10 1.1697435983897996e-10  0.0000000000000000e+00 6.7861145480885579e-10 1.1551050194696263e-10  0.0000000000000000e+00 6.8009475768802810e-10 1.1932987640050317e-10  0.0000000000000000e+00 6.8354294263266687e-10 1.2967476142067653e-10  0.0000000000000000e+00 6.8461171667805692e-10 1.3218778582454539e-10  0.0000000000000000e+00 6.8540898346319649e-10 1.3398305638257914e-10  0.0000000000000000e+00 6.8815054137316932e-10 1.3931557834035963e-10  0.0000000000000000e+00 6.8661423728667981e-10 1.3655431749572031e-10  0.0000000000000000e+00 6.8723560525091796e-10 1.3740893171163889e-10  0.0000000000000000e+00 6.8070833788916894e-10 1.2193621687209596e-10  0.0000000000000000e+00 6.8937876392408300e-10 1.4160759091920560e-10  0.0000000000000000e+00 6.8901836771045282e-10 1.4115355549385422e-10  0.0000000000000000e+00 6.8138841457457246e-10 1.2342950611940261e-10  0.0000000000000000e+00 6.8077327078662416e-10 1.2084088090798689e-10  0.0000000000000000e+00 6.8305994861910831e-10 1.2825291974767254e-10  0.0000000000000000e+00 6.7993664454292706e-10 1.1848138291709535e-10  0.0000000000000000e+00 6.8202933432128787e-10 1.2549320858300779e-10  0.0000000000000000e+00 6.8433351056388889e-10 1.3146051208804579e-10  0.0000000000000000e+00 6.8609152922693204e-10 1.3553453149529149e-10  0.0000000000000000e+00 6.8167594839455216e-10 1.2440589898265294e-10  0.0000000000000000e+00 6.8641680360457094e-10 1.3621989463487252e-10  0.0000000000000000e+00 6.8983523109898753e-10 1.4291767571137759e-10  0.0000000000000000e+00 6.7913533112098914e-10 1.1612585324713541e-10  0.0000000000000000e+00 6.8094332223184127e-10 1.2167953582466589e-10  0.0000000000000000e+00 6.8622438388143915e-10 1.3583982813492887e-10  0.0000000000000000e+00 6.8115219640140942e-10 1.2253946761815340e-10  0.0000000000000000e+00 6.7977950437826714e-10 1.1757756985451281e-10  0.0000000000000000e+00 6.8319443256733006e-10 1.2827389422662078e-10  0.0000000000000000e+00 6.8408165508050660e-10 1.3076921976617374e-10  0.0000000000000000e+00 6.8606471303646898e-10 1.3542557016650772e-10  0.0000000000000000e+00 6.8510265889846943e-10 1.3318902844415025e-10  0.0000000000000000e+00 6.8712117943566521e-10 1.3776382383944177e-10  0.0000000000000000e+00 6.8060255214741411e-10 1.1996085254668330e-10  0.0000000000000000e+00 6.8356933558713040e-10 1.2953834031546577e-10  0.0000000000000000e+00 6.8868079448130634e-10 1.4070861019159621e-10  0.0000000000000000e+00 6.8950808224368022e-10 1.4249408227780810e-10  0.0000000000000000e+00 6.7881023719391022e-10 1.1336417481844264e-10  0.0000000000000000e+00 6.7871108873542067e-10 1.1233711223580888e-10  0.0000000000000000e+00 6.7935916727826005e-10 1.1387007487796800e-10  0.0000000000000000e+00 6.8774757813993643e-10 1.3878749435894239e-10  0.0000000000000000e+00 6.8730239159700699e-10 1.3802809547705443e-10  0.0000000000000000e+00 6.8183896592340481e-10 1.2403701779732916e-10  0.0000000000000000e+00 6.8045130494341897e-10 1.1908798448170741e-10  0.0000000000000000e+00 6.7925885919472590e-10 1.1288112628763664e-10  0.0000000000000000e+00 6.7890603554434957e-10 1.1429929508636361e-10  0.0000000000000000e+00 6.7944281611002635e-10 1.1481467232803517e-10  0.0000000000