<?xml version="1.0"?>
<VTKFile type="UnstructuredGrid"  version="0.1"  >
<UnstructuredGrid>
<Piece  NumberOfPoints="10102" NumberOfCells="19938">
<Points>
<DataArray  type="Float64"  NumberOfComponents="3"  format="ascii">3.094387000623446e-23 9.362176028589572e-07 1.049999999999998e-07  3.10545148279091e-23 9.37214202814286e-07 1.049999999999998e-07  3.104604218909993e-23 9.366170237105078e-07 1.044791356421893e-07  3.083322518455982e-23 9.352210029036284e-07 1.049999999999998e-07  3.095512173311036e-23 9.357173904345722e-07 1.043984410296837e-07  3.072258036288518e-23 9.342244029482996e-07 1.049999999999998e-07  3.086463171054106e-23 9.347789206024705e-07 1.042750328614297e-07  3.059632895162771e-23 9.330872313309114e-07 1.049999999999998e-07  3.075947029412553e-23 9.337348712932476e-07 1.041781933837722e-07  3.044975623160136e-23 9.317670216363246e-07 1.049999999999998e-07  3.063903409232463e-23 9.325055537365178e-07 1.040336686941473e-07  3.028316687981452e-23 9.302665181510625e-07 1.049999999999998e-07  3.050032863555032e-23 9.310628064616588e-07 1.038402691061744e-07  3.010603849382264e-23 9.286710874847629e-07 1.049999999999998e-07  3.03427994722671e-23 9.294660556925816e-07 1.036624148992218e-07  2.990582970273149e-23 9.268677670108541e-07 1.049999999999998e-07  3.015866717742381e-23 9.276454888355242e-07 1.035003643110506e-07  2.965009987018127e-23 9.245643574536929e-07 1.049999999999998e-07  2.995570209245911e-23 9.256264007947319e-07 1.033094232322908e-07  2.936922844892102e-23 9.220344925974394e-07 1.049999999999998e-07  2.970520031681734e-23 9.232186528971138e-07 1.031579947415445e-07  2.907846410483031e-23 9.194155202140404e-07 1.049999999999998e-07  2.94394143556429e-23 9.208425938058328e-07 1.031759227616746e-07  2.829751699895409e-23 9.12381374024e-07 1.049999999999998e-07  2.871480795986355e-23 9.161399968561137e-07 1.049999999999998e-07  2.889777749075006e-23 9.142568662279411e-07 1.014688263495859e-07  2.78283854967732e-23 9.081558131071807e-07 1.049999999999998e-07  2.843264916062678e-23 9.098796884203227e-07 1.012811520904129e-07  2.722746484270379e-23 9.027432010396881e-07 1.049999999999998e-07  2.790434448377107e-23 9.047830409331678e-07 1.00943050094909e-07  2.658876551113481e-23 8.969903088963765e-07 1.049999999999998e-07  2.733213812717208e-23 8.993518775028901e-07 1.006658633333476e-07  2.587413663226682e-23 8.905535041912203e-07 1.049999999999998e-07  2.67404801076417e-23 8.941443876442403e-07 1.007875551472734e-07  2.414672788881825e-23 8.749943894445973e-07 1.049999999999998e-07  2.505234248150101e-23 8.83151440528892e-07 1.049999999999998e-07  2.539580494672813e-23 8.788943873176128e-07 9.764931192789539e-08  2.440660507046355e-23 8.694357510350442e-07 9.710059603360698e-08  3.111347616068899e-23 9.372017299640655e-07 1.044564506771058e-07  3.116515964958374e-23 9.382108027696148e-07 1.049999999999998e-07  3.116710283519918e-23 9.377893259728444e-07 1.045610205432023e-07  2.930618399494245e-23 9.182097378505417e-07 1.017430992119935e-07  2.643632526516861e-23 8.883599417560745e-07 9.77426925295571e-08  3.121627217655906e-23 9.382801874862426e-07 1.046090040017476e-07  3.123086934728239e-23 9.381334313005722e-07 1.043307681908167e-07  3.121972996744241e-23 9.37865119956152e-07 1.041627914601895e-07  3.107037656909137e-23 9.362283351293663e-07 1.038712624517243e-07  3.090336851611943e-23 9.343667458984256e-07 1.035139480310483e-07  3.118038442597833e-23 9.374622135912391e-07 1.041142782270293e-07  3.040907053576723e-23 9.286460986704096e-07 1.022455412032805e-07  3.022994499388832e-23 9.265957866687302e-07 1.018086486489179e-07  3.003173516221399e-23 9.243870830170066e-07 1.013852604453337e-07  2.97540204361387e-23 9.215970002237504e-07 1.010966095258135e-07  2.668250594107438e-23 8.834044426930997e-07 9.056979506603225e-08  2.85760971564122e-23 9.070901470905756e-07 9.719954607993323e-08  2.804529672152557e-23 9.017989204775585e-07 9.668934474844323e-08  2.743306337873163e-23 8.95757917485563e-07 9.616284946538884e-08  3.113182073105943e-23 9.369283539015787e-07 1.040178414140498e-07  3.080653517533485e-23 9.332487835607567e-07 1.032681828883283e-07  3.069667074462496e-23 9.31908958922628e-07 1.029179290686122e-07  2.944331999723571e-23 9.161009782875222e-07 9.839912835131999e-08  3.057064640190419e-23 9.304154020327204e-07 1.025594985445384e-07  2.904537530200729e-23 9.119147529249103e-07 9.779727015099761e-08  2.573995606418084e-23 8.741608439010064e-07 8.981593082265064e-08  3.127487854026913e-23 9.384922599788224e-07 1.04293197298795e-07  3.098896966459999e-23 9.353350395328535e-07 1.037112150646771e-07  2.764972498851277e-23 8.920224782134482e-07 9.047589590312237e-08  2.478671039944208e-23 8.640513390906559e-07 8.829249965332025e-08  3.125221227988135e-23 9.386957541063042e-07 1.047008509499494e-07  2.981903383174019e-23 9.198678297136189e-07 9.878185040727199e-08  3.127301312328486e-23 9.381739139466629e-07 1.03991653449106e-07  3.11114439672706e-23 9.359282241546658e-07 1.032012492387497e-07  3.127580447125837e-23 9.392074027249435e-07 1.049999999999998e-07  3.066104553402935e-23 9.297889682405146e-07 1.011188217568256e-07  3.050835156741006e-23 9.277330696440902e-07 1.004382681427379e-07  2.821913693764975e-23 8.989710867287309e-07 9.229569753449781e-08  2.62208124351757e-23 8.702120423398863e-07 8.153596011506813e-08  2.53897987168427e-23 8.596351539543613e-07 7.844417787399169e-08  3.034412842374417e-23 9.25708566636763e-07 9.989295571264931e-08  3.121603812636963e-23 9.373070941809123e-07 1.036380188331091e-07  3.088101752512528e-23 9.327955163481851e-07 1.02144038310233e-07  2.877626150068257e-23 9.046684048178427e-07 9.297488367466251e-08  3.125327390485806e-23 9.377914251074998e-07 1.037869596834459e-07  3.096661257820764e-23 9.34009653357073e-07 1.02587203620788e-07  3.130186195213771e-23 9.388342100056898e-07 1.043921023583894e-07  3.10441412813343e-23 9.350496571930778e-07 1.029288909797692e-07  3.077495537346166e-23 9.31377241224256e-07 1.016810861197246e-07  3.116915099221255e-23 9.366883637009296e-07 1.034416101129631e-07  3.12998688059246e-23 9.390869570504827e-07 1.046628020682676e-07  3.011839011208653e-23 9.230196732719372e-07 9.923733230035271e-08  2.781923515978233e-23 8.869568458054506e-07 8.38834516067946e-08  2.962524125372252e-23 9.139636915864694e-07 9.462324064441758e-08  2.924300876197139e-23 9.096711294753302e-07 9.377352274811689e-08  3.133223740688384e-23 9.387859135987271e-07 1.04070208178075e-07  3.134726029214558e-23 9.390355526249373e-07 1.041845330833516e-07  3.138009549841097e-23 9.390545998311555e-07 1.039078270441669e-07  3.132479573288466e-23 9.38501150986321e-07 1.038524742061682e-07  3.002886253202275e-23 9.182773577650167e-07 9.530140954586145e-08  3.138682392967571e-23 9.392727216777217e-07 1.040653445696598e-07  3.132733791707593e-23 9.390658619052106e-07 1.043942871655049e-07  3.137467177237918e-23 9.388284284575507e-07 1.037305082516335e-07  2.697644214216812e-23 8.788659444241695e-07 8.338375486566916e-08  3.135901888451731e-23 9.392402211991026e-07 1.042832896730694e-07  3.128802364184399e-23 9.376792848000801e-07 1.033618215709441e-07  3.116567352908142e-23 9.357033350178587e-07 1.024879036332152e-07  3.110979790657619e-23 9.347721884224752e-07 1.02060039903219e-07  3.089186945049125e-23 9.309117861346535e-07 1.001625626426325e-07  3.260354233135407e-23 9.511666021888888e-07 1.049999999999998e-07  3.271418715302871e-23 9.521632021442176e-07 1.049999999999998e-07  3.267957579573682e-23 9.516403740541438e-07 1.047889233015311e-07  3.149709411460766e-23 9.412006026356011e-07 1.049999999999998e-07  3.16077389362823e-23 9.421972025909299e-07 1.049999999999998e-07  3.157148429809069e-23 9.416631143024951e-07 1.047924644616655e-07  2.869365997733051e-23 8.939035967223672e-07 8.295408395876416e-08  3.122042904109843e-23 9.365122236889898e-07 1.028035984973138e-07  2.906850448877368e-23 9.025610544023264e-07 8.82352424346087e-08  3.09830393011985e-23 9.325247456550362e-07 1.009543371516701e-07  3.272198103681516e-23 9.519638223959911e-07 1.047304191875405e-07  3.274920015844918e-23 9.521907897081854e-07 1.047122184476381e-07  3.275374641828763e-23 9.520613117236846e-07 1.045417913949087e-07  3.27210132606659e-23 9.517964905197089e-07 1.045718042638687e-07  3.161948039711236e-23 9.420403125177722e-07 1.047373522496042e-07  3.164117778998968e-23 9.422977342104129e-07 1.047993412012905e-07  3.161154037377248e-23 9.418082370281125e-07 1.04576794132254e-07  3.165092501840075e-23 9.422214268357494e-07 1.046352385981469e-07  3.164566764816655e-23 9.420599989883581e-07 1.04521164932011e-07  3.27594348706251e-23 9.519290090988185e-07 1.043582517463878e-07  3.278336147567785e-23 9.523089253381181e-07 1.045226562864878e-07  3.26445230768217e-23 9.512736038298922e-07 1.047378799009685e-07  3.153531351494835e-23 9.413023167733706e-07 1.047574643835041e-07  3.26368257978217e-23 9.510888282405854e-07 1.04622435237334e-07  3.260586202403483e-23 9.509809397975574e-07 1.04793443674483e-07  3.152579890228478e-23 9.411170800835628e-07 1.046579277057887e-07  3.149719502703533e-23 9.410097661931505e-07 1.04808254619206e-07  3.266803843225584e-23 9.512524286833265e-07 1.045048972624614e-07  3.155591371193344e-23 9.412658072704003e-07 1.045354048016021e-07  3.157838910200469e-23 9.415155075269108e-07 1.045826647414128e-07  3.268842474397251e-23 9.515011136760917e-07 1.045699586835253e-07  3.264979651727202e-23 9.510231409951963e-07 1.044399181373786e-07  3.153629872428038e-23 9.410660086331021e-07 1.045122822664743e-07  3.150873540086929e-23 9.409309033736251e-07 1.046254453530839e-07  3.261868731384009e-23 9.508963238548136e-07 1.045933077909634e-07  3.16777177511348e-23 9.422942927095501e-07 1.04466776989633e-07  3.16747340701807e-23 9.424412082513453e-07 1.046405671402945e-07  3.277667593614333e-23 9.524497610965912e-07 1.047237100316737e-07  3.281213799319242e-23 9.525458666528807e-07 1.045004017741392e-07  3.262910760992525e-23 9.50801188065872e-07 1.
[...]
<PointData  Tensors="f_58"> 
<DataArray  type="Float64"  Name="f_58"  NumberOfComponents="9" format="ascii">-5.3422920956959787e-07 5.5919625899844667e-19 6.8268109220781783e-19 5.5919625899844667e-19 -4.0345202886981346e-03 3.2858899823129151e-05 6.8268109220781783e-19 3.2858899823129151e-05 1.8746646346142831e-03  3.7699915705339184e-06 6.6891893273278524e-19 7.8652456287455453e-19 6.6891893273278524e-19 -3.9575566399654158e-03 7.3670059201183240e-06 7.8652456287455453e-19 7.3670059201183240e-06 1.8612359466151284e-03  -4.0878416389498290e-07 6.4721220436632796e-19 7.4125490059288525e-19 6.4721220436632796e-19 -3.1939738187653144e-03 -3.6371131033488843e-05 7.4125490059288525e-19 -3.6371131033488843e-05 1.4262913816385241e-03  4.4859899659456658e-08 4.8997627622617165e-19 6.1144489943332028e-19 4.8997627622617165e-19 -3.9696512541479859e-03 2.0846624637310673e-05 6.1144489943332028e-19 2.0846624637310673e-05 1.8232500383699929e-03  1.4863569042599904e-07 5.7276764248005609e-19 6.7202860415491628e-19 5.7276764248005609e-19 -3.1232924813077954e-03 3.4046402361873622e-05 6.7202860415491628e-19 3.4046402361873622e-05 1.4035560373663893e-03  1.1603675156612866e-09 4.3604453416738617e-19 5.5326467381956780e-19 4.3604453416738617e-19 -3.8947995296284908e-03 -1.0346564548628971e-05 5.5326467381956780e-19 -1.0346564548628971e-05 1.7624584122341999e-03  -2.7775124386841395e-08 5.0616794153762171e-19 6.0496325435065368e-19 5.0616794153762171e-19 -3.1391293745280193e-03 3.0646064680969928e-05 6.0496325435065368e-19 3.0646064680969928e-05 1.4206278177580983e-03  -1.1305504550536514e-09 3.8060902984521740e-19 4.9714274090332959e-19 3.8060902984521740e-19 -3.8494649531434833e-03 -5.0121773469446042e-06 4.9714274090332959e-19 -5.0121773469446042e-06 1.7401536265583266e-03  3.1644444882880383e-09 4.4910903530752518e-19 5.4606633198373721e-19 4.4910903530752518e-19 -3.1202701711143727e-03 2.4318297424081606e-05 5.4606633198373721e-19 2.4318297424081606e-05 1.4222857141240601e-03  2.1723228346799518e-10 3.2881785755627570e-19 4.4443101393581819e-19 3.2881785755627570e-19 -3.7681586884536779e-03 4.9638156989914688e-06 4.4443101393581819e-19 4.9638156989914688e-06 1.6953852823565888e-03  -1.3170518881315007e-10 3.9443101475333508e-19 4.8996238032114902e-19 3.9443101475333508e-19 -3.0746474512710776e-03 2.2894019147915578e-05 4.8996238032114902e-19 2.2894019147915578e-05 1.3994951366631601e-03  -2.4415388564574622e-11 2.8141772935882733e-19 3.9641051206113969e-19 2.8141772935882733e-19 -3.6827857910830069e-03 1.7682439435884332e-05 3.9641051206113969e-19 1.7682439435884332e-05 1.6466248078104821e-03  -3.8023077218443143e-11 3.4434839230186908e-19 4.3669262379941764e-19 3.4434839230186908e-19 -3.0164353870544085e-03 1.2000679912630849e-05 4.3669262379941764e-19 1.2000679912630849e-05 1.3769108845852380e-03  2.5558875320477185e-13 2.3888034012791757e-19 3.5230454224360337e-19 2.3888034012791757e-19 -3.5987533193197630e-03 1.8677047842075090e-05 3.5230454224360337e-19 1.8677047842075090e-05 1.5928386379833203e-03  1.1947925335830093e-11 2.9966020675209961e-19 3.8734935832450436e-19 2.9966020675209961e-19 -2.9524112125665566e-03 -1.4470564372847779e-05 3.8734935832450436e-19 -1.4470564372847779e-05 1.3438027863329610e-03  5.0272543870672990e-13 1.9911839840712707e-19 3.0649100086930496e-19 1.9911839840712707e-19 -3.5252846867232556e-03 8.1531649368368948e-07 3.0649100086930496e-19 8.1531649368368948e-07 1.5926624709623328e-03  -1.8455786952203836e-12 2.5461747900425415e-19 3.4149445167656275e-19 2.5461747900425415e-19 -2.9008320081696367e-03 -1.0374740615069002e-05 3.4149445167656275e-19 -1.0374740615069002e-05 1.3150461162320557e-03  -1.2543499156522184e-13 1.6062391792264283e-19 2.6248693492422626e-19 1.6062391792264283e-19 -3.4000742650763336e-03 -1.1505273522620905e-05 2.6248693492422626e-19 -1.1505273522620905e-05 1.5420627361354647e-03  1.2528543468718723e-13 2.1195997900546174e-19 2.9477228724913601e-19 2.1195997900546174e-19 -2.8580767928749560e-03 -3.1494856441491633e-05 2.9477228724913601e-19 -3.1494856441491633e-05 1.3032731580508840e-03  1.8240525381997351e-14 1.2134839322881698e-19 2.1889399322187622e-19 1.2134839322881698e-19 -3.3349172562189785e-03 -3.3383980220169412e-05 2.1889399322187622e-19 -3.3383980220169412e-05 1.5109239846935467e-03  1.7083414345590120e-14 1.7160562588341508e-19 2.5447830457973402e-19 1.7160562588341508e-19 -2.7575417911417681e-03 -1.2571928491034902e-05 2.5447830457973402e-19 -1.2571928491034902e-05 1.2394964746099961e-03  3.5732717308146498e-16 8.1400291134117851e-20 1.8320969481220658e-19 8.1400291134117851e-20 -3.2291290939464139e-03 3.8540589188518666e-05 1.8320969481220658e-19 3.8540589188518666e-05 1.4721751024541017e-03  -8.8190575312528009e-15 1.3945674529461540e-19 2.1437415746947702e-19 1.3945674529461540e-19 -2.6634482494832818e-03 -5.0717314775587231e-05 2.1437415746947702e-19 -5.0717314775587231e-05 1.2124215016972618e-03  6.5938719931869253e-17 3.8953302857487155e-20 1.2063272426145192e-19 3.8953302857487155e-20 -2.7059745295454998e-03 -2.7369396212810775e-05 1.2063272426145192e-19 -2.7369396212810775e-05 1.1798300899250422e-03  -5.3266691920638911e-17 6.9265646527064383e-20 1.5515758228445556e-19 6.9265646527064383e-20 -2.8673544766191477e-03 -2.1980930605483898e-05 1.5515758228445556e-19 -2.1980930605483898e-05 1.2761010559235592e-03  -1.9212758911569636e-16 8.8202477628601937e-20 1.4425798059003543e-19 8.8202477628601937e-20 -2.1970547648986652e-03 -8.9886927327084546e-05 1.4425798059003543e-19 -8.9886927327084546e-05 1.0074747412474011e-03  -1.9308706533411458e-17 1.4055171452726489e-20 8.7146141678248679e-20 1.4055171452726489e-20 -2.4628719710179233e-03 -2.7254195272148854e-05 8.7146141678248679e-20 -2.7254195272148854e-05 1.0916737153862054e-03  3.6590950673968622e-17 6.2424762978154884e-20 1.0800139603464323e-19 6.2424762978154884e-20 -2.0063076148161244e-03 -1.3331912832518442e-04 1.0800139603464323e-19 -1.3331912832518442e-04 9.1863372756575935e-04  4.1245308874394344e-18 -4.4690307485471684e-21 5.8136738240287959e-20 -4.4690307485471684e-21 -2.1802954642876852e-03 -3.6504891354512872e-05 5.8136738240287959e-20 -3.6504891354512872e-05 9.7948041002120971e-04  -3.0437720165559422e-18 3.6529733330393656e-20 7.4090754415190877e-20 3.6529733330393656e-20 -1.8250558662601085e-03 -1.5152224726288979e-04 7.4090754415190877e-20 -1.5152224726288979e-04 8.4537216948972211e-04  -6.3017734614765438e-19 -1.5034721683042738e-20 3.1517692567302848e-20 -1.5034721683042738e-20 -1.8765112940818806e-03 -8.3496262680512977e-05 3.1517692567302848e-20 -8.3496262680512977e-05 8.7090502683668744e-04  -3.6076659241146494e-19 1.7214175598662600e-20 4.9852364637224861e-20 1.7214175598662600e-20 -1.5788418987270204e-03 -1.4510141103631617e-04 4.9852364637224861e-20 -1.4510141103631617e-04 7.0068173268596104e-04  1.7015289689905838e-20 -2.8774787161594385e-20 1.1868808306086135e-20 -2.8774787161594385e-20 -1.5972486811423245e-03 -5.9829902920012716e-05 1.1868808306086135e-20 -5.9829902920012716e-05 7.4541894968934124e-04  2.0839602930330691e-19 2.9401921169415617e-21 2.6266086222588392e-20 2.9401921169415617e-21 -1.3400933110906403e-03 -1.5485873494621124e-04 2.6266086222588392e-20 -1.5485873494621124e-04 6.1017388918913843e-04  1.3854639011194715e-21 -2.4884649675258487e-20 -7.7827972395737880e-21 -2.4884649675258487e-20 -8.0196754351175091e-04 -7.1379044609152766e-05 -7.7827972395737880e-21 -7.1379044609152766e-05 3.5112986926666450e-04  -3.4278367480178609e-21 -2.3879339615318782e-20 2.8743400826741283e-21 -2.3879339615318782e-20 -1.1005841435628334e-03 -6.5107389779698289e-05 2.8743400826741283e-21 -6.5107389779698289e-05 4.8841791632875582e-04  4.3662800020976857e-22 -3.2547438331159768e-21 -2.3816428520621199e-21 -3.2547438331159768e-21 -6.7859432915297075e-04 -1.8807843962939238e-04 -2.3816428520621199e-21 -1.8807843962939238e-04 2.8670906088246087e-04  -1.6775712634441655e-22 -5.9289578024759364e-21 -1.0525672310506017e-20 -5.9289578024759364e-21 -4.2737125294494701e-04 -1.6346209245442597e-04 -1.0525672310506017e-20 -1.6346209245442597e-04 1.8325411501806502e-04  -1.6546987635146764e-06 7.2275327903632288e-19 8.2738334027404419e-19 7.2275327903632288e-19 -2.8428010022397508e-03 1.2310425315937827e-04 8.2738334027404419e-19 1.2310425315937827e-04 1.2008524918242884e-03  -3.0869318218135631e-05 7.8032817096602182e-19 8.9372465928443018e-19 7.8032817096602182e-19 -4.4694961730918853e-03 -9.0860225941498930e-05 8.9372465928443018e-19 -9.0860225941498930e-05 2.1832675546278905e-03  4.1923505069550852e-06 7.8322710736225687e-19 8.8660042483638820e-19 7.8322710736225687e-19 -3.0949847606497232e-03 5.3834038709480526e-05 8.8660042483638820e-19 5.3834038709480526e-05 1.3488294028560182e-03  3.4542967302025538e-16 1.2513196820282768e-19 1.8712528373012922e-19 1.2513196820282768e-19 -2.3110180395470668e-03 -6.3983415500942369e-05 1.8712528373012922e-19 -6.3983415500942369e-05 1.0662789177129542e-03  1.8916558820871759e-21 9.4912627115629093e-21 1.2873838901420777e-20 9.4912627115629093e-21 -9.2955690207746286e-04 -2.2420009001558746e-04 1.2873838901420777e-20 -2.2420009001558746e-04 4.2022164657349876e-04  1.7653316334571041e-05 9.0818982464640796e-19 1.0244831746080324e-18 9.0818982464640796e-19 -2.4618349521692558e-03 2.0035508684403651e-04 1.0244831746080324e-18 2.0035508684403651e-04 8.0289700831466233e-04  -5.3301060354457587e-06 8.8027488766724490e-19 9.6542727336778301e-19 8.8027488766724490e-19 -2.1444987325043726e-03 2.2277694617317518e-04 9.6542727336778301e-19 2.2277694617317518e-04 1.0454234027358234e-03  5.5328732027028735e-08 8.6268693973607570e-19 9.4666995117265149e-19 8.6268693973607570e-19 -1.6936312790164281e-03 2.9495481152571739e-04 9.4666995117265149e-19 2.9495481152571739e-04 7.7074812348679569e-04  -9.8882281429671215e-10 6.4430423719276680e-19 7.3125055474407353e-19 6.4430423719276680e-19 -2.3195198424330594e-03 1.6559935224540732e-04 7.3125055474407353e-19 1.6559935224540732e-04 1.0844309559764605e-03  6.9080576330428222e-09 5.1642452784806827e-19 6.0153196633741633e-19 5.1642452784806827e-19 -2.4076348499336218e-03 1.1169101253174056e-04 6.0153196633741633e-19 1.1169101253174056e-04 1.0978713780441861e-03  -4.7184460950830173e-07 7.8778072666282953e-19 8.6881147679626403e-19 7.8778072666282953e-19 -2.1676019324814353e-03 1.6458662857857373e-04 8.6881147679626403e-19 1.6458662857857373e-04 1.0361112759933841e-03  -1.1109368251489255e-12 3.0718896342858034e-19 3.8255097046531044e-19 3.0718896342858034e-19 -2.2960460663540233e-03 5.4769214442445643e-05 3.8255097046531044e-19 5.4769214442445643e-05 1.0479832657831034e-03  6.1550622799361370e-13 2.6341554383196624e-19 3.3237873868506671e-19 2.6341554383196624e-19 -2.2681507626103148e-03 1.2462558125415237e-05 3.3237873868506671e-19 1.2462558125415237e-05 1.0507454055213438e-03  -1.1000164158087510e-13 2.2275723743565343e-19 2.8629124338671923e-19 2.2275723743565343e-19 -2.1986182176879322e-03 -2.1506944893090038e-05 2.8629124338671923e-19 -2.1506944893090038e-05 1.0110774255754768e-03  1.1334214636512347e-14 1.7874029025310385e-19 2.3856480616415908e-19 1.7874029025310385e-19 -2.2305021556321054e-03 -7.5260211789224336e-05 2.3856480616415908e-19 -7.5260211789224336e-05 1.0022790618177280e-03  -2.4950585931900704e-21 3.4732627517894570e-20 9.3148904948031437e-21 3.4732627517894570e-20 -4.3144848688106576e-04 -3.6143174632143624e-04 9.3148904948031437e-21 -3.6143174632143624e-04 1.6647023818137615e-04  -2.6552793130686842e-18 8.1921843712476914e-20 9.8430858486853383e-20 8.1921843712476914e-20 -1.4173851166171558e-03 -2.3037343631794539e-04 9.8430858486853383e-20 -2.3037343631794539e-04 6.5923827283676613e-04  1.7391411091719886e-18 5.7780422632397426e-20 6.5121973965337106e-20 5.7780422632397426e-20 -1.2496286179318888e-03 -2.6790411941009549e-04 6.5121973965337106e-20 -2.6790411941009549e-04 5.8156674772233223e-04  -2.5588468689200018e-19 3.6967031483873559e-20 3.9174365636457594e-20 3.6967031483873559e-20 -1.0887401479630064e-03 -2.8690000699177780e-04 3.9174365636457594e-20 -2.8690000699177780e-04 4.7517633691119589e-04  3.6571007406682848e-07 7.1737800047593127e-19 8.0625337280142582e-19 7.1737800047593127e-19 -2.1855936172069765e-03 2.1864100217358062e-04 8.0625337280142582e-19 2.1864100217358062e-04 1.0225706669518312e-03  -1.3142307586292656e-09 4.5975692323422416e-19 5.4252143112798984e-19 4.5975692323422416e-19 -2.3950841111397012e-03 9.7689055833860355e-05 5.4252143112798984e-19 9.7689055833860355e-05 1.0995067667067769e-03  1.7914980668177428e-10 4.0586172555256127e-19 4.8597600293084265e-19 4.0586172555256127e-19 -2.3659192998507069e-03 8.4369084390657973e-05 4.8597600293084265e-19 8.4369084390657973e-05 1.0914473079401948e-03  8.1557568864389842e-16 1.4405575170052279e-19 1.7729222418329666e-19 1.4405575170052279e-19 -1.6397923319223958e-03 -1.3551376291036124e-04 1.7729222418329666e-19 -1.3551376291036124e-04 7.7002974574916141e-04  -1.2725697637838314e-11 3.5512918064076554e-19 4.3208054117968526e-19 3.5512918064076554e-19 -2.3492415970342365e-03 6.0786711466303179e-05 4.3208054117968526e-19 6.0786711466303179e-05 1.0845825199203712e-03  -6.1639797078411027e-17 1.0924157264149275e-19 1.3406275887838919e-19 1.0924157264149275e-19 -1.5545501137921918e-03 -1.8597542218798437e-04 1.3406275887838919e-19 -1.8597542218798437e-04 7.3546052906658856e-04  -2.4272110866846175e-23 2.1408338389766171e-20 -1.9571440492713987e-21 2.1408338389766171e-20 -2.6161911077920497e-04 -3.0377410355270405e-04 -1.9571440492713987e-21 -3.0377410355270405e-04 7.4986015696922986e-05  3.8642552793808680e-06 9.9179505793672836e-19 1.0798960043377329e-18 9.9179505793672836e-19 -1.3996811761241722e-03 4.2042183772583941e-04 1.0798960043377329e-18 4.2042183772583941e-04 6.6116780460458635e-04  -2.1800505540216351e-08 5.7727981847456290e-19 6.6383938080188853e-19 5.7727981847456290e-19 -2.3848139639780518e-03 1.3657151295084428e-04 6.6383938080188853e-19 1.3657151295084428e-04 1.0985949382987723e-03  3.4153918792396562e-20 5.5964351265043108e-20 3.1970210730697144e-20 5.5964351265043108e-20 -5.2739398257584721e-04 -3.6370059445239622e-04 3.1970210730697144e-20 -3.6370059445239622e-04 2.3223280314928113e-04  -2.8947467365432777e-23 1.2373664037598890e-20 -7.8768630015520559e-21 1.2373664037598890e-20 -1.1942054777625681e-04 -2.4192697667337485e-04 -7.8768630015520559e-21 -2.4192697667337485e-04 3.6765853981303817e-07  -5.1097096882627696e-05 9.4311965797169980e-19 1.0232246495740503e-18 9.4311965797169980e-19 -3.7377369213780175e-03 -3.2279188313280875e-04 1.0232246495740503e-18 -3.2279188313280875e-04 1.5469157200240530e-03  -6.1047887029217994e-15 1.7929601432926907e-19 2.2460980666905096e-19 1.7929601432926907e-19 -1.6643893198077062e-03 -2.3394616821447143e-05 2.2460980666905096e-19 -2.3394616821447143e-05 8.0129937296791534e-04  1.2725455749951774e-07 9.1160937439744515e-19 1.0053202492083004e-18 9.1160937439744515e-19 -1.1732791898633427e-03 5.8939238244569534e-04 1.0053202492083004e-18 5.8939238244569534e-04 6.6417342035285593e-04  1.2115693828651234e-08 6.4280404886050462e-19 7.2802733741329864e-19 6.4280404886050462e-19 -1.5966990649922484e-03 3.8003143053175632e-04 7.2802733741329864e-19 3.8003143053175632e-04 8.2153987516522277e-04  2.7176456508286393e-04 1.1790407378548974e-18 1.3125014394034142e-18 1.1790407378548974e-18 -3.2672546801981181e-03 8.1898174389318776e-05 1.3125014394034142e-18 8.1898174389318776e-05 1.5703658960865053e-03  9.3948677541906859e-12 3.6090204687768140e-19 4.2784009978185290e-19 3.6090204687768140e-19 -1.6874290194062078e-03 1.6686489894211096e-04 4.2784009978185290e-19 1.6686489894211096e-04 8.1531007561559600e-04  -9.2670740912964383e-13 3.1102829437892686e-19 3.7537924819416639e-19 3.1102829437892686e-19 -1.6990176945821402e-03 1.5317377985207974e-04 3.7537924819416639e-19 1.5317377985207974e-04 8.4612152593992922e-04  2.6691341911904930e-19 7.5503495463739964e-20 5.8136109439320026e-20 7.5503495463739964e-20 -7.3573250432353715e-04 -3.4414768902583953e-04 5.8136109439320026e-20 -3.4414768902583953e-04 3.6030013918374101e-04  6.6620788923446609e-23 3.3209481846907582e-20 2.3122761601803340e-21 3.3209481846907582e-20 5.4505348520422063e-05 -3.0768609577619952e-04 2.3122761601803340e-21 -3.0768609577619952e-04 -1.1328296400268271e-04  -3.5021970708277561e-23 2.2388483869573598e-20 -1.1665619403467629e-21 2.2388483869573598e-20 1.2588002929776640e-04 -2.2568697891112177e-04 -1.1665619403467629e-21 -2.2568697891112177e-04 -1.5292400499100056e-04  -3.1932709546632664e-14 2.6942241495239518e-19 3.2586624197314822e-19 2.6942241495239518e-19 -1.6512139949332945e-03 8.3141044387947496e-05 3.2586624197314822e-19 8.3141044387947496e-05 8.0069449029309379e-04  9.4230772379627007e-09 7.8040462801521836e-19 8.7147854594417148e-19 7.8040462801521836e-19 -1.3309044880206232e-03 5.1746710463990966e-04 8.7147854594417148e-19 5.1746710463990966e-04 7.2521569206323124e-04  3.4566917403950455e-10 4.6462989188174891e-19 5.3967022654947331e-19 4.6462989188174891e-19 -1.7145771994824652e-03 2.4331903453348822e-04 5.3967022654947331e-19 2.4331903453348822e-04 8.4940946689860287e-04  -5.5378132836344791e-18 9.4186379521322471e-20 9.0020872780182048e-20 9.4186379521322471e-20 -9.2023274877495696e-04 -2.7328137201842475e-04 9.0020872780182048e-20 -2.7328137201842475e-04 4.4870910316692188e-04  5.3298898027961048e-08 8.4827461844492055e-19 9.4378319650029526e-19 8.4827461844492055e-19 -1.2010662812355763e-03 5.9753733312409426e-04 9.4378319650029526e-19 5.9753733312409426e-04 6.7571795911664856e-04  -1.1123691415343266e-09 5.1867241984989712e-19 5.9912485796801710e-19 5.1867241984989712e-19 -1.7044609919515631e-03 2.9539427420489060e-04 5.9912485796801710e-19 2.9539427420489060e-04 8.4594503430325074e-04  2.0472204583997953e-05 1.0827272750904160e-18 1.1875978332443094e-18 1.0827272750904160e-18 -1.0491741694698862e-03 7.0431849902756168e-04 1.1875978332443094e-18 7.0431849902756168e-04 6.0957555019733236e-04  1.0499796502725097e-09 5.7785709919282143e-19 6.6128593728609305e-19 5.7785709919282143e-19 -1.6752026244846109e-03 3.3568617060595392e-04 6.6128593728609305e-19 3.3568617060595392e-04 8.4365672906045299e-04  -6.8256618648589583e-11 4.0944615510477283e-19 4.8433659348700463e-19 4.0944615510477283e-19 -1.7053243089490081e-03 2.4959825022593282e-04 4.8433659348700463e-19 2.4959825022593282e-04 8.5541447132044066e-04  -6.1041354139132822e-08 7.1450357829822232e-19 8.0134352629650963e-19 7.1450357829822232e-19 -1.4432450321707581e-03 4.3520305405802488e-04 8.0134352629650963e-19 4.3520305405802488e-04 7.4915962779489875e-04  -5.6078198841972700e-05 1.3028477267239983e-18 1.3363694137799229e-18 1.3028477267239983e-18 -7.2513791229625476e-04 -4.0558238720055323e-04 1.3363694137799229e-18 -4.0558238720055323e-04 -8.0205628912563770e-04  3.0933907405932938e-14 2.2435489800920880e-19 2.7559914904315419e-19 2.2435489800920880e-19 -1.6559110814119786e-03 3.2401894961243091e-05 2.7559914904315419e-19 3.2401894961243091e-05 7.9758051195093498e-04  -2.1319640108766400e-20 6.4329138621753062e-20 2.3864775451414888e-20 6.4329138621753062e-20 -1.1506115997686189e-04 -4.1115453688045519e-04 2.3864775451414888e-20 -4.1115453688045519e-04 2.1693249798835087e-05  -3.1248536387628319e-16 1.4814522839242991e-19 1.6484296611217357e-19 1.4814522839242991e-19 -1.0806629148941173e-03 -1.0197405900840669e-04 1.6484296611217357e-19 -1.0197405900840669e-04 5.7591509538640112e-04  4.9965155277250797e-17 1.1974349797805804e-19 1.2409897030802954e-19 1.1974349797805804e-19 -1.0207316356550772e-03 -2.0797405775916126e-04 1.2409897030802954e-19 -2.0797405775916126e-04 5.2632230588776690e-04  -3.4321264821171441e-06 1.0387386536451718e-18 1.1685694875139427e-18 1.0387386536451718e-18 -4.5067785006598404e-04 1.2310395989114462e-03 1.1685694875139427e-18 1.2310395989114462e-03 5.6706841479402920e-04  -4.8914241666112385e-06 1.1035956534146668e-18 1.2483017683217308e-18 1.10