<?xml version="1.0"?>
<VTKFile type="UnstructuredGrid"  version="0.1"  >
<UnstructuredGrid>
<Piece  NumberOfPoints="10013" NumberOfCells="19682">
<Points>
<DataArray  type="Float64"  NumberOfComponents="3"  format="ascii">3.592288698159329e-23 9.810646008487521e-07 1.049999999999998e-07  3.603353180326792e-23 9.820612008040807e-07 1.049999999999998e-07  3.600110987886184e-23 9.815685341954413e-07 1.047993641247082e-07  3.548030769489473e-23 9.77078201027437e-07 1.049999999999998e-07  3.559095251656937e-23 9.780748009827658e-07 1.049999999999998e-07  3.555374679945624e-23 9.775307370813492e-07 1.047910554060368e-07  3.536966287322008e-23 9.76081601072108e-07 1.049999999999998e-07  3.544469852931925e-23 9.765759612888196e-07 1.04818499111016e-07  3.525901805154544e-23 9.750850011167793e-07 1.049999999999998e-07  3.533867516982792e-23 9.756161250423487e-07 1.048136363891404e-07  3.51483732298708e-23 9.740884011614505e-07 1.049999999999998e-07  3.522402349789267e-23 9.745876951560852e-07 1.04817896956887e-07  3.503772840819616e-23 9.730918012061219e-07 1.049999999999998e-07  3.512012196568898e-23 9.736529527463384e-07 1.048190163505716e-07  3.492708358652152e-23 9.720952012507929e-07 1.049999999999998e-07  3.500302526439212e-23 9.725700948179852e-07 1.047908717428722e-07  3.45951491214976e-23 9.691054013848068e-07 1.049999999999998e-07  3.470579394317224e-23 9.701020013401356e-07 1.049999999999998e-07  3.466681475120761e-23 9.695425370328952e-07 1.047916290415738e-07  3.448450429982296e-23 9.68108801429478e-07 1.049999999999998e-07  3.457246893502023e-23 9.687045173362714e-07 1.048034009102008e-07  3.437385947814832e-23 9.671122014741493e-07 1.049999999999998e-07  3.444929484652201e-23 9.675872904650248e-07 1.047956275970789e-07  3.404192501312439e-23 9.641224016081629e-07 1.049999999999998e-07  3.415256983479904e-23 9.651190015634917e-07 1.049999999999998e-07  3.411990835931877e-23 9.646229792911238e-07 1.047981661452367e-07  3.393128019144975e-23 9.631258016528342e-07 1.049999999999998e-07  3.400909310181952e-23 9.636435519419924e-07 1.048168739008664e-07  3.382063536977511e-23 9.621292016975054e-07 1.049999999999998e-07  3.390284342683843e-23 9.626730665233525e-07 1.048034004755326e-07  3.472504555695692e-23 9.699868555469134e-07 1.047114510854438e-07  3.475195920906633e-23 9.703105513156404e-07 1.047927302269486e-07  3.542163426187476e-23 9.762733205283146e-07 1.047236028030481e-07  3.5199749788386e-23 9.742724702881327e-07 1.047213102271127e-07  3.409069584163345e-23 9.642774062792401e-07 1.047157161008772e-07  3.470436889957664e-23 9.696857411145083e-07 1.045965754259849e-07  3.560419001472548e-23 9.779311217809755e-07 1.047370880146833e-07  3.476111528544695e-23 9.702173459391149e-07 1.046170542460713e-07  3.475975407623999e-23 9.700873141718691e-07 1.044992831613798e-07  3.46249752387102e-23 9.691100502261235e-07 1.047359990605874e-07  3.563441649565979e-23 9.782548050403879e-07 1.047885153375507e-07  3.460910635931423e-23 9.688464613329619e-07 1.046153443260948e-07  3.538410665583063e-23 9.759288556841955e-07 1.047171565841219e-07  3.516191930353986e-23 9.739533996817245e-07 1.047429863356171e-07  3.405426766927734e-23 9.63966129099129e-07 1.047325547276636e-07  3.559410030508016e-23 9.776701542887668e-07 1.045670005476725e-07  3.458497207104551e-23 9.68597616359204e-07 1.045838816956446e-07  3.546560965208359e-23 9.765661381825099e-07 1.046203253553274e-07  3.52456643603523e-23 9.745771824403258e-07 1.046124606809093e-07  3.413066861999425e-23 9.645163745827855e-07 1.045946416249613e-07  3.563885691566024e-23 9.781295611639474e-07 1.046232757133914e-07  3.562989378734708e-23 9.779365449701634e-07 1.045109922022698e-07  3.464632242201008e-23 9.690551484048681e-07 1.044888189058226e-07  3.542183580030863e-23 9.761047165580378e-07 1.045531835359399e-07  3.519780013553665e-23 9.74104913423665e-07 1.045713142743367e-07  3.40900545149644e-23 9.641200170365576e-07 1.045641034152902e-07  3.596291124235434e-23 9.811810918506783e-07 1.047559845102276e-07  3.551970347465684e-23 9.77171742687695e-07 1.047386960221447e-07  3.531255945496604e-23 9.752771564553909e-07 1.047098972496236e-07  3.509959228161156e-23 9.733422435130253e-07 1.046932220723808e-07  3.496819881303688e-23 9.722000242912977e-07 1.047344900028768e-07  3.453761306214084e-23 9.683001851249175e-07 1.047130224910696e-07  3.441520437934899e-23 9.672234227436988e-07 1.047388195062675e-07  3.398026583574447e-23 9.633056903992459e-07 1.047386652876273e-07  3.387881580186633e-23 9.623559870022633e-07 1.047027425601853e-07  3.555956174083125e-23 9.773529229615946e-07 1.045608649506629e-07  3.605121382821724e-23 9.819530769765495e-07 1.047326106505228e-07  3.474142802413121e-23 9.698831598709384e-07 1.044601952633456e-07  3.548915054386426e-23 9.768688601875683e-07 1.04711009857483e-07  3.527065681093335e-23 9.748996655052606e-07 1.047098317635962e-07  3.505867785365082e-23 9.729846352854989e-07 1.047041382498906e-07  3.449978680065472e-23 9.679494892722031e-07 1.047030353126225e-07  3.416095332983821e-23 9.649258316315163e-07 1.047313182577555e-07  3.394795878200644e-23 9.629825171638004e-07 1.047064881225339e-07  3.607955305626421e-23 9.822543978171034e-07 1.047786744173321e-07  3.514653363247178e-23 9.736861239297744e-07 1.046142923886451e-07  3.420129447236713e-23 9.653529810568777e-07 1.047951069741951e-07  3.41892216930401e-23 9.651524328431194e-07 1.047033006893938e-07  3.403532826015499e-23 9.63651236179281e-07 1.045882528395477e-07  3.383908301692458e-23 9.619867605417749e-07 1.04691397210613e-07  3.595455120155024e-23 9.810025082541916e-07 1.046527014670412e-07  3.592408821904435e-23 9.808805735833384e-07 1.048051529495123e-07  3.495899236431874e-23 9.72011884853055e-07 1.04629274882667e-07  3.49337920328919e-23 9.719540917402183e-07 1.047984661762773e-07  3.44067440505752e-23 9.670348415314978e-07 1.046264421610925e-07  3.437659456180231e-23 9.669195057849943e-07 1.047826688673951e-07  3.598575768627642e-23 9.811613259684814e-07 1.045304361553623e-07  3.608483926387671e-23 9.821336546392934e-07 1.046103173142544e-07  3.607822362680848e-23 9.819625998648406e-07 1.044988509010722e-07  3.418963950397357e-23 9.649877321794167e-07 1.045348367193625e-07  3.531263687462763e-23 9.750832534800753e-07 1.045152969399898e-07  3.51780597285526e-23 9.739035945358915e-07 1.045478011656382e-07  3.443927325695877e-23 9.672118856662073e-07 1.045104892523068e-07  3.498770988929208e-23 9.721572702060604e-07 1.045159957661346e-07  3.388220596351564e-23 9.622044365368568e-07 1.045206562332976e-07  3.448469248935032e-23 9.676985150786376e-07 1.045880185885888e-07  3.453787919068134e-23 9.68124617086897e-07 1.045350573802575e-07  3.604336288849505e-23 9.817139159975344e-07 1.045641646499225e-07  3.504328886912709e-23 9.727074022623536e-07 1.045655168766785e-07  3.415912576246099e-23 9.647576676855939e-07 1.045796155753512e-07  3.392916066332631e-23 9.62688671844056e-07 1.045819612033557e-07  3.47872399881693e-23 9.704209449018762e-07 1.045853428059414e-07  3.60078538530355e-23 9.814094743827864e-07 1.045795599929022e-07  3.536391479637724e-23 9.756329721265103e-07 1.046031451278571e-07  3.500817775403954e-23 9.724025063575533e-07 1.04576873781528e-07  3.445812559480781e-23 9.674464317210355e-07 1.04575228543711e-07  3.552999273140349e-23 9.770527973057568e-07 1.045270732545062e-07  3.407108162627688e-23 9.639117985810703e-07 1.045267775486495e-07  3.540424697046129e-23 9.75880404126165e-07 1.044872971991599e-07  3.496890467418787e-23 9.719325569936555e-07 1.044606648732016e-07  3.398337636158879e-23 9.63159382383657e-07 1.045643401459716e-07  3.467722078919026e-23 9.693971362994143e-07 1.045524990505307e-07  3.401125558308839e-23 9.633710880469863e-07 1.045249321061869e-07  3.457077089372285e-23 9.683562860635808e-07 1.044704642338185e-07  3.535010898867621e-23 9.753830101869605e-07 1.044775348491431e-07  3.550599862561734e-23 9.767871136163726e-07 1.044775092568772e-07  3.528452419012669e-23 9.748026900779776e-07 1.044879500887778e-07  3.478925483043967e-23 9.70288596290451e-07 1.044348461087201e-07  3.596606017872648e-23 9.80952314364502e-07 1.04498843926707e-07  3.442024175795391e-23 9.669817363600405e-07 1.04451760449793e-07  3.462519935779412e-23 9.687886036964364e-07 1.044125338456547e-07  3.514067794913499e-23 9.734762390189864e-07 1.044571507844443e-07  3.391205579802825e-23 9.624433018723308e-07 1.044906581615956e-07  3.566550536221939e-23 9.781844833562408e-07 1.044381700376973e-07  3.545482657340379e-23 9.763413159936824e-07 1.044926285047485e-07  3.523550551198601e-23 9.743208069093485e-07 1.044475879213658e-07  3.412709647484308e-23 9.643232565420508e-07 1.044336986073701e-07  3.593437170642465e-23 9.807880148102179e-07 1.046199687565237e-07  3.438715877103752e-23 9.668338971474774e-07 1.046019062923278e-07  3.510558880628656e-23 9.731829684526702e-07 1.04479935119442e-07  3.493375744286201e-23 9.717925294336267e-07 1.046372154289773e-07  3.422421272598176e-23 9.653732138022548e-07 1.046089104426945e-07  3.507776278238997e-23 9.729331620752401e-07 1.044807632837156e-07  3.611103143384953e-23 9.821866796437376e-07 1.044274242248393e-07  3.422019297605939e-23 9.652068679207165e-07 1.044787712496611e-07  3.45241348828532e-23 9.678876236172214e-07 1.044218616298084e-07  3.397250271135501e-23 9.629522508708527e-07 1.044551497674493e-07  3.386937210736081e-23 9.619462885632335e-07 1.043781053592677e-07  3.56656836818282e-23 9.783372660634518e-07 1.045893465846606e-07  3.407576437607725e-23 9.63784167791323e-07 1.043569682983901e-07  3.500002227563912e-23 9.720691681550337e-07 1.043169935979786e-07  3.517823767159694e-23 9.737535152847536e-07 1.043961191460439e-07  3.456467498907108e-23 9.681485196569056e-07 1.043176048549798e-07  3.559805543419781e-23 9.774956114738601e-07 1.043568330967248e-07  3.538868955566219e-23 9.756408728963831e-07 1.04387894704362e-07  3.60786917602935e-23 9.818066762968541e-07 1.043387107615082e-07  3.472286662311435e-23 9.696550308750345
[...]
<PointData  Tensors="f_71"> 
<DataArray  type="Float64"  Name="f_71"  NumberOfComponents="9" format="ascii">-1.5790120906237033e+08 -1.2883196639223987e-07 -6.8887369825312629e-08 -1.2883196639223987e-07 -2.5991904510336331e+08 1.0091244763251349e+07 -6.8887369825312629e-08 1.0091244763251349e+07 -3.2547613600611389e+06  -1.0102829253248611e+08 -1.0240102171865130e-07 -5.5751666177615088e-08 -1.0240102171865130e-07 -1.9010368239863664e+08 -2.4861921844040952e+06 -5.5751666177615088e-08 -2.4861921844040952e+06 1.1044444345241694e+07  -9.1869173487963170e+07 -1.1044303865501916e-07 -5.8308001553395806e-08 -1.1044303865501916e-07 -1.7597664990783143e+08 1.7916401871545509e+07 -5.8308001553395806e-08 1.7916401871545509e+07 1.6334905522229984e+07  -6.2531429731520855e+08 5.3538224472610435e-08 3.2654222851564528e-08 5.3538224472610435e-08 6.6036583363959992e+08 -3.6176858964252831e+04 3.2654222851564528e-08 -3.6176858964252831e+04 -6.8691721813903488e+06  -6.1760606112644923e+08 4.3607340284112007e-08 2.9660995417506945e-08 4.3607340284112007e-08 7.0548143067750645e+08 8.9608969069552124e+06 2.9660995417506945e-08 8.9608969069552124e+06 -4.5999101901415158e+06  -6.2980069385618675e+08 4.7543074324733044e-08 3.0195090831385564e-08 4.7543074324733044e-08 6.4963597701148582e+08 4.3999914844444994e+05 3.0195090831385564e-08 4.3999914844444994e+05 -1.8574624813499317e+07  -6.2713345332026684e+08 6.3219368186338967e-08 3.7264336669243951e-08 6.3219368186338967e-08 6.6069295907408714e+08 5.9342632308252854e+05 3.7264336669243951e-08 5.9342632308252854e+05 -4.1064682621853449e+06  -6.2767632977750576e+08 5.9074237154166392e-08 3.6500669339597843e-08 5.9074237154166392e-08 6.6070355783093357e+08 2.3956844018988870e+06 3.6500669339597843e-08 2.3956844018988870e+06 -2.1312232136829615e+07  -6.2958213815501165e+08 7.0802228948183247e-08 4.0767600181952388e-08 7.0802228948183247e-08 6.5580636864775324e+08 1.3372192451005892e+05 4.0767600181952388e-08 1.3372192451005892e+05 -3.7054427199598448e+06  -6.3007181175824618e+08 6.7141965981872836e-08 3.9983913548966730e-08 6.7141965981872836e-08 6.5519141542745483e+08 3.2319725669127954e+06 3.9983913548966730e-08 3.2319725669127954e+06 -1.6068509970773146e+07  -6.3121168458164763e+08 7.7132401958546030e-08 4.3679868729746594e-08 7.7132401958546030e-08 6.5281528407445741e+08 -2.6235251547428826e+05 4.3679868729746594e-08 -2.6235251547428826e+05 -2.6876454711478227e+06  -6.3199337259033263e+08 7.4162779875594163e-08 4.3135919914446924e-08 7.4162779875594163e-08 6.5169574208136201e+08 2.5358331466748458e+06 4.3135919914446924e-08 2.5358331466748458e+06 -1.4105097910155641e+07  -6.3384772313893580e+08 8.2533227305903214e-08 4.6261063658734244e-08 8.2533227305903214e-08 6.4798887568139362e+08 2.1037163018467737e+05 4.6261063658734244e-08 2.1037163018467737e+05 -3.5276188744877335e+06  -6.3320963053906393e+08 7.9735314769202511e-08 4.5663608663348610e-08 7.9735314769202511e-08 6.4938028228561997e+08 3.2038573146036207e+06 4.5663608663348610e-08 3.2038573146036207e+06 -1.1518284486142477e+07  -6.3544429665243125e+08 8.7430674896680241e-08 4.8565604890187316e-08 8.7430674896680241e-08 6.4506931681045616e+08 -7.5520316099236812e+05 4.8565604890187316e-08 -7.5520316099236812e+05 -4.4437931097120009e+06  -6.3726507206605041e+08 8.4698461783282323e-08 4.7430040547713568e-08 8.4698461783282323e-08 6.4177084643783426e+08 2.1795940646021701e+06 4.7430040547713568e-08 2.1795940646021701e+06 -6.1155699400261715e+06  -6.4137698059114134e+08 9.9170652871657469e-08 5.3915013635403503e-08 9.9170652871657469e-08 6.3411778254985726e+08 -1.2227368950250452e+05 5.3915013635403503e-08 -1.2227368950250452e+05 -2.9481344112246004e+06  -6.3974873885816634e+08 9.5599465195100818e-08 5.2403202139461772e-08 9.5599465195100818e-08 6.3713877464355445e+08 1.4624051339049700e+06 5.2403202139461772e-08 1.4624051339049700e+06 -3.5280401095317830e+06  -6.4379779910722697e+08 9.7252616680151853e-08 5.2908442355197167e-08 9.7252616680151853e-08 6.2970818187410140e+08 -8.1515244178294914e+05 5.2908442355197167e-08 -8.1515244178294914e+05 -4.6688588636910487e+06  -6.4347764208228099e+08 1.0252288645238757e-07 5.5488576995975378e-08 1.0252288645238757e-07 6.3027150766293728e+08 2.4500168401929588e+05 5.5488576995975378e-08 2.4500168401929588e+05 -3.3644139229945443e+06  -6.4446964487447488e+08 1.0014146390366837e-07 5.4582360256708913e-08 1.0014146390366837e-07 6.2849048450900793e+08 3.5898045145028904e+06 5.4582360256708913e-08 3.5898045145028904e+06 -4.7902327421845095e+06  -6.4463437960411155e+08 1.0570924903161165e-07 5.6817299773429216e-08 1.0570924903161165e-07 6.2808339348091161e+08 -2.7032613428011420e+05 5.6817299773429216e-08 -2.7032613428011420e+05 -1.4214754648863333e+06  -6.4574899368173647e+08 1.0409933819788833e-07 5.6309162756842623e-08 1.0409933819788833e-07 6.2615007070100844e+08 7.0012345630377857e+05 5.6309162756842623e-08 7.0012345630377857e+05 -5.5670908857718743e+06  -6.4905575710022092e+08 1.1468848199396542e-07 6.1009122624077338e-08 1.1468848199396542e-07 6.1995494536129761e+08 3.1407610158903961e+05 6.1009122624077338e-08 3.1407610158903961e+05 -1.5697505197471296e+06  -6.4791814023864877e+08 1.1188560578423829e-07 5.9733132709147841e-08 1.1188560578423829e-07 6.2206498490181756e+08 2.8937180363588483e+05 5.9733132709147841e-08 2.8937180363588483e+05 -2.0550181894283972e+06  -6.4956950946506524e+08 1.1326257546942297e-07 6.0524486241940068e-08 1.1326257546942297e-07 6.1911133658921659e+08 1.7932840741766460e+05 6.0524486241940068e-08 1.7932840741766460e+05 -5.2986744770034412e+06  -6.5025328858701038e+08 1.1755629022461821e-07 6.2322236696102227e-08 1.1755629022461821e-07 6.1773514642354035e+08 2.2193377212562418e+05 6.2322236696102227e-08 2.2193377212562418e+05 -1.3302514127383581e+06  -6.5018061225802135e+08 1.1613299744866707e-07 6.2016915864867201e-08 1.1613299744866707e-07 6.1802689555919302e+08 9.2462280652372725e+05 6.2016915864867201e-08 9.2462280652372725e+05 -6.3794091907870062e+06  -6.5152599508902669e+08 1.2030403906130433e-07 6.3616330807196377e-08 1.2030403906130433e-07 6.1554970585207677e+08 2.6123504972278097e+05 6.3616330807196377e-08 2.6123504972278097e+05 -1.5609712415532963e+06  -6.5162693520994210e+08 1.1879988308225299e-07 6.3236777522247770e-08 1.1879988308225299e-07 6.1529581898361087e+08 1.3012746033986283e+06 6.3236777522247770e-08 1.3012746033986283e+06 -5.9860781040178807e+06  -6.4642462736792421e+08 9.4511025526520368e-08 5.0917643437036663e-08 9.4511025526520368e-08 6.2450057163539803e+08 6.3992694460319011e+06 5.0917643437036663e-08 6.3992694460319011e+06 9.7612066915122177e+06  -6.4371407999200261e+08 9.4283560961733389e-08 4.9948104607396717e-08 9.4283560961733389e-08 6.2952038766282630e+08 -1.0399481625781994e+07 4.9948104607396717e-08 -1.0399481625781994e+07 8.4059024767696857e+06  -6.4213702692152905e+08 5.9819329330258679e-08 3.2028704483440554e-08 5.9819329330258679e-08 6.3194108292633450e+08 -1.7673911806827914e+07 3.2028704483440554e-08 -1.7673911806827914e+07 1.8084568936638344e+07  -6.4119913972691798e+08 7.4836790654178662e-08 4.0243053472969591e-08 7.4836790654178662e-08 6.3405783349356866e+08 -1.1890761139336912e+07 4.0243053472969591e-08 -1.1890761139336912e+07 1.1826978700953938e+07  -6.5383572581459701e+08 1.1365507578399988e-07 5.9277987094210666e-08 1.1365507578399988e-07 6.1093666148771369e+08 -5.3703256369138611e+06 5.9277987094210666e-08 -5.3703256369138611e+06 7.0151237619734164e+06  -6.4996974107212985e+08 9.5983728798827045e-08 5.2135461609171704e-08 9.5983728798827045e-08 6.1835999162833536e+08 1.9865947292424764e+06 5.2135461609171704e-08 1.9865947292424764e+06 -4.9079827764709909e+06  -6.4273688806900251e+08 3.7241766882781114e-08 2.0884678317465822e-08 3.7241766882781114e-08 6.2734297569095659e+08 2.2660793664402429e+07 2.0884678317465822e-08 2.2660793664402429e+07 5.7082089756465182e+07  -6.5281900136568189e+08 9.3422478122571042e-08 5.0454574939317896e-08 9.3422478122571042e-08 6.1305404113527703e+08 7.5425279746666923e+05 5.0454574939317896e-08 7.5425279746666923e+05 -2.1840501564084156e+06  -6.5471145422812045e+08 9.3458676555369638e-08 5.0055843088518994e-08 9.3458676555369638e-08 6.0948071875609207e+08 -8.4342247547617811e+05 5.0055843088518994e-08 -8.4342247547617811e+05 8.2884616874904092e+05  -6.4714400014553332e+08 9.7972051392033713e-08 5.1983437549190719e-08 9.7972051392033713e-08 6.2311314287705290e+08 -2.0099668076598697e+05 5.1983437549190719e-08 -2.0099668076598697e+05 1.2037628518923435e+07  -6.0703000508490169e+08 3.5530584680207746e-08 1.5157149042810067e-08 3.5530584680207746e-08 6.7622143231185842e+08 -6.0382992178453438e+07 1.5157149042810067e-08 -6.0382992178453438e+07 7.1066811027315155e+07  -6.5326684053496158e+08 9.8479250601075886e-08 5.3407096216638318e-08 9.8479250601075886e-08 6.1231390715758085e+08 5.2573558176393975e+06 5.3407096216638318e-08 5.2573558176393975e+06 -5.2470677169038169e+06  -6.4350339767625654e+08 6.1162716008143248e-08 3.4424897771340372e-08 6.1162716008143248e-08 6.2952988257681656e+08 1.3395204716817072e+07 3.4424897771340372e-08 1.3395204716817072e+07 2.1522070540713076e+07  -6.4240568410170817e+08 7.5553058422842739e-08 4.1699419636449234e-08 7.5553058422842739e-08 6.3171905762209570e+08 1.0656965150606140e+07 4.1699419636449234e-08 1.0656965150606140e+07 1.6386869163347999e+07  -6.5507774270043039e+08 1.1399727292611375e-07 6.0201459018689314e-08 1.1399727292611375e-07 6.0868331562709439e+08 6.0396409853708083e+06 6.0201459018689314e-08 6.0396409853708083e+06 5.8762083547243215e+06  -6.6008672947120249e+08 4.1718447509732573e-08 2.5619391552050552e-08 4.1718447509732573e-08 6.0158054837655473e+08 7.0729360786679862e+06 2.5619391552050552e-08 7.0729360786679862e+06 -8.4030939120278209e+06  -6.5155883516948926e+08 9.9463953514392320e-08 5.3568489774349494e-08 9.9463953514392320e-08 6.1538773966106915e+08 1.4916188635734685e+06 5.3568489774349494e-08 1.4916188635734685e+06 -2.7184510113543300e+06  -6.4686999956993234e+08 5.6603041736027457e-08 3.3330870471211689e-08 5.6603041736027457e-08 6.2406984884574473e+08 -1.0730275176748713e+06 3.3330870471211689e-08 -1.0730275176748713e+06 -1.2379170284121018e+07  -6.4485426340006089e+08 7.2594516491909819e-08 4.1078711150494889e-08 7.2594516491909819e-08 6.2786321750488770e+08 2.6759181569343153e+05 4.1078711150494889e-08 2.6759181569343153e+05 -8.0804876353321960e+06  -6.5628809584662974e+08 1.1261233302545065e-07 5.9667372382160355e-08 1.1261233302545065e-07 6.0669392995852256e+08 2.7367290015080507e+05 5.9667372382160355e-08 2.7367290015080507e+05 -2.8987763180103111e+06  -6.7854568595516121e+08 3.1406871581306363e-08 1.8527790031547168e-08 3.1406871581306363e-08 5.6966663490368474e+08 4.8447605325846327e+06 1.8527790031547168e-08 4.8447605325846327e+06 5.2530875661692554e+06  -6.7523988165370941e+08 3.3618427785738815e-08 1.8441726874863663e-08 3.3618427785738815e-08 5.7086940563684142e+08 3.2269934335698346e+06 1.8441726874863663e-08 3.2269934335698346e+06 2.1698785058505107e+07  -6.5449809790227973e+08 9.7439993339983890e-08 5.1964187701941674e-08 9.7439993339983890e-08 6.0980547988391411e+08 1.1488618479522474e+06 5.1964187701941674e-08 1.1488618479522474e+06 3.5549509633849477e+06  -6.5994269387603080e+08 5.9268093039541607e-08 3.3533962462002020e-08 5.9268093039541607e-08 6.0013534212691188e+08 -1.7764954436997662e+06 3.3533962462002020e-08 -1.7764954436997662e+06 -7.6761994843736282e+06  -6.5390886666656280e+08 7.4213913921744741e-08 4.1139433976921484e-08 7.4213913921744741e-08 6.1111248011111736e+08 1.0366746452642252e+06 4.1139433976921484e-08 1.0366746452642252e+06 -4.1319769292201521e+06  -6.6042299106823242e+08 1.1326525826504211e-07 5.9704880726303957e-08 1.1326525826504211e-07 5.9905887562909806e+08 1.0729709853196167e+06 5.9704880726303957e-08 1.0729709853196167e+06 -1.4307052833955889e+06  -6.5241527729879364e+07 -1.1387113317158732e-07 -4.8601087666254607e-08 -1.1387113317158732e-07 -1.1797925826705234e+08 3.1918767747242454e+07 -4.8601087666254607e-08 3.1918767747242454e+07 -1.3249365560747628e+08  -6.4350848681685078e+08 5.0137702134973244e-08 2.6066536682267472e-08 5.0137702134973244e-08 6.3138965471652210e+08 -2.0368099780963335e+07 2.6066536682267472e-08 -2.0368099780963335e+07 3.3557620788922854e+07  -6.4213137500194991e+08 6.7896536384471828e-08 3.6701797630379639e-08 6.7896536384471828e-08 6.3233615932758331e+08 -1.2289753536712397e+07 3.6701797630379639e-08 -1.2289753536712397e+07 1.2791062649618654e+07  -6.4313979520438111e+08 8.0268634622742049e-08 4.3280601232483933e-08 8.0268634622742049e-08 6.3065554373897386e+08 -1.0789239587377351e+07 4.3280601232483933e-08 -1.0789239587377351e+07 5.6486679424395785e+06  -6.4297559092876458e+08 8.5885805126400185e-08 4.5581912929592920e-08 8.5885805126400185e-08 6.3074785299489927e+08 -9.8805270548262428e+06 4.5581912929592920e-08 -9.8805270548262428e+06 1.3320428628503425e+07  -6.4850650644370222e+08 1.0126582126320773e-07 5.3501906549806976e-08 1.0126582126320773e-07 6.2076160179991829e+08 -6.6055380996533716e+06 5.3501906549806976e-08 -6.6055380996533716e+06 6.0347517222953327e+06  -6.4975793635532844e+08 1.0464754996926809e-07 5.4941945163147673e-08 1.0464754996926809e-07 6.1836592353652918e+08 -5.0345812292056261e+06 5.4941945163147673e-08 -5.0345812292056261e+06 9.7025967739052344e+06  -6.5499805283604980e+08 1.1643488646007514e-07 6.0678317850063400e-08 1.1643488646007514e-07 6.0884750736818278e+08 -5.4358059587138249e+06 6.0678317850063400e-08 -5.4358059587138249e+06 5.3840536672780616e+06  -6.5627462052104461e+08 1.1919017466685109e-07 6.2006033436563885e-08 1.1919017466685109e-07 6.0663765547532153e+08 -5.3911149662231952e+06 6.2006033436563885e-08 -5.3911149662231952e+06 4.7015347097572917e+06  -6.6075075584958637e+08 4.6215997370094639e-08 2.6636146828954049e-08 4.6215997370094639e-08 5.9913753872657478e+08 -4.9959692626973307e+06 2.6636146828954049e-08 -4.9959692626973307e+06 -3.6783263305884474e+06  -8.6189200342163727e+07 -9.9620368232508876e-08 -5.2533620493134354e-08 -9.9620368232508876e-08 -1.5490027715628266e+08 -2.8275034468359064e+07 -5.2533620493134354e-08 -2.8275034468359064e+07 -3.5136003133496523e+07  -6.5531998306158125e+08 9.3907357946057736e-08 5.0571401220785168e-08 9.3907357946057736e-08 6.0837529675433052e+08 4.3140522484080791e+06 5.0571401220785168e-08 4.3140522484080791e+06 9.5886665694668761e+05  -6.4560578344718957e+08 5.1492519641225897e-08 3.0792156581506322e-08 5.1492519641225897e-08 6.2620291268753922e+08 2.4338920905450772e+07 3.0792156581506322e-08 2.4338920905450772e+07 1.4247290127849706e+07  -6.4277415158007276e+08 6.9310341919501959e-08 3.8848288394448352e-08 6.9310341919501959e-08 6.3108938885220063e+08 1.2212779089007897e+07 3.8848288394448352e-08 1.2212779089007897e+07 1.4554076449329196e+07  -6.4419349200839674e+08 8.1003267562788003e-08 4.4405660220683719e-08 8.1003267562788003e-08 6.2854129769727814e+08 8.3582580467749080e+06 4.4405660220683719e-08 8.3582580467749080e+06 1.2066921525808314e+07  -6.5032726747962499e+08 1.0155288737450553e-07 5.4256937775853080e-08 1.0155288737450553e-07 6.1735263077082956e+08 6.8056223169508288e+06 5.4256937775853080e-08 6.8056223169508288e+06 8.4551203776530828e+06  -6.5261968850973165e+08 1.1114251122379741e-07 5.9124813331155900e-08 1.1114251122379741e-07 6.1321336959839070e+08 8.5770021764605083e+06 5.9124813331155900e-08 8.5770021764605083e+06 5.6718914997948147e+06  -6.5627587219335294e+08 1.1672630829880885e-07 6.1345302345944675e-08 1.1672630829880885e-07 6.0646837636399591e+08 5.4125787972415229e+06 6.1345302345944675e-08 5.4125787972415229e+06 7.1074348063710155e+06  -8.7904148324449018e+07 -9.8788935048875496e-08 -4.8722122842979693e-08 -9.8788935048875496e-08 -1.6025704838095209e+08 3.1551348235905178e+07 -4.8722122842979693e-08 3.1551348235905178e+07 -2.5812292496517602e+07  -6.4448891678661299e+08 7.7639269703771400e-08 4.3814854353470990e-08 7.7639269703771400e-08 6.2850680309524572e+08 5.1938404034629175e+06 4.3814854353470990e-08 5.1938404034629175e+06 -6.9221138859467143e+06  -6.4925222916872990e+08 1.1106996457431660e-07 5.8275768835806807e-08 1.1106996457431660e-07 6.1945323619486094e+08 -8.6793603160594180e+06 5.8275768835806807e-08 -8.6793603160594180e+06 3.7630638524242775e+06  -6.5518544683874345e+08 1.1057093608780450e-07 5.7838122315982416e-08 1.1057093608780450e-07 6.0840646919792545e+08 -1.2700753942800718e+06 5.7838122315982416e-08 -1.2700753942800718e+06 8.8331456774876229e+06  -6.5650914066100395e+08 1.1520238899081705e-07 6.1010545036885711e-08 1.1520238899081705e-07 6.0629752238636434e+08 1.0700129638853748e+06 6.1010545036885711e-08 1.0700129638853748e+06 -3.4268468756208103e+06  -6.5749724599303579e+08 1.1951946852514479e-07 6.2644095300460257e-08 1.1951946852514479e-07 6.0389852900662279e+08 4.4335850586765604e+06 6.2644095300460257e-08 4.4335850586765604e+06 6.0164083183233086e+06  -2.7769191722719581e+06 -1.0753349633111017e-07 -5.9450032650909360e-08 -1.0753349633111017e-07 -1.7575753399427861e+06 -7.4345745906611949e+07 -5.9450032650909360e-08 -7.4345745906611949e+07 2.0358048647317044e+07  -1.4197579307905545e+07 -1.1377186313695723e-07 -6.0447265726421299e-08 -1.1377186313695723e-07 -4.4206882388339497e+07 -1.2944412480418493e+08 -6.0447265726421299e-08 -1.2944412480418493e+08 -8.8420838464916587e+07  -6.5047487153269827e+08 8.5294451724482504e-08 4.6669800351292200e-08 8.5294451724482504e-08 6.1730695364100301e+08 4.5146411781145316e+06 4.6669800351292200e-08 4.5146411781145316e+06 5.8975976186907920e+05  -6.4207150605236340e+08 8.6081202464202517e-08 4.7469394273241142e-08 8.6081202464202517e-08 6.3247189945857334e+08 1.4360887277402204e+07 4.7469394273241142e-08 1.4360887277402204e+07 1.1143615105599349e+07  -6.5593428233671701e+08 1.0442376021226818e-07 5.5764953602743164e-08 1.0442376021226818e-07 6.0731607007027328e+08 2.5920406916675698e+06 5.5764953602743164e-08 2.5920406916675698e+06 -1.9147102344552651e+06  -6.4985150672623205e+08 1.0519067350357012e-07 5.6305854736486434e-08 1.0519067350357012e-07 6.1828321209571111e+08 8.4255027588168383e+06 5.6305854736486434e-08 8.4255027588168383e+06 6.4617997948258817e+06  -1.4745786311236376e+07 -1.0678131928962099e-07 -5.3665820187890358e-08 -1.0678131928962099e-07 -2.6003253405674670e+07 -3.6922673423408419e+07 -5.3665820187890358e-08 -3.6922673423408419e+07 -3.4991923063191280e+07  -5.7553764531256542e+07 -9.6503079787157097e-08 -5.0314044897673722e-08 -9.6503079787157097e-08 -1.0663153398691472e+08 2.7197149788544625e+06 -5.0314044897673722e-08 2.7197149788544625e+06 6.8052793435671758e+06  -5.2270682723978519e+07 -9.6104518082346212e-08 -4.9800981121161162e-08 -9.6104518082346212e-08 -9.6343201526917204e+07 -9.5903191830044091e+06 -4.9800981121161162e-08 -9.5903191830044091e+06 -8.1871408267485127e+06  -6.5873534286154985e+08 1.1058746854378096e-07 5.8509339222065831e-08 1.1058746854378096e-07 6.0212091421933997e+08 2.4224585861668806e+06 5.8509339222065831e-08 2.4224585861668806e+06 -4.0311296941981063e+05  -6.5767382671832693e+08 6.7324288016831220e-08 3.7535469984862637e-08 6.7324288016831220e-08 6.0417902688935721e+08 7.8455255916794529e+05 3.7535469984862637e-08 7.8455255916794529e+05 -4.1361578632385433e+06  -6.5016391177153838e+08 7.5118813511852437e-08 4.1454129657880842e-08 7.5118813511852437e-08 6.1774841032186556e+08 4.9094707731949855e+06 4.1454129657880842e-08 4.9094707731949855e+06 4.7054957810387164e+06  -6.5652774267406726e+08 1.0391394172125473e-07 5.5062354026153308e-08 1.0391394172125473e-07 6.0610989439976752e+08 5.8009238823756226e+05 5.5062354026153308e-08 5.8009238823756226e+05 2.3390623419631710e+06  -6.5218244537555349e+08 8.4859045807211543e-08 4.5887209085991800e-08 8.4859045807211543e-08 6.1406418588699377e+08 3.8138474427263439e+05 4.5887209085991800e-08 3.8138474427263439e+05 3.5526817874601707e+06  -6.6293519230179644e+08 1.1872886390424487e-07 6.2254217863597089e-08 1.1872