<?xml version="1.0"?>
<VTKFile type="UnstructuredGrid"  version="0.1"  >
<UnstructuredGrid>
<Piece  NumberOfPoints="10016" NumberOfCells="19520">
<Points>
<DataArray  type="Float64"  NumberOfComponents="3"  format="ascii">4.965882134545785e-23 9.999999999999972e-07 2.131013858730117e-10  4.967082817620118e-23 9.999999999999972e-07 1.049534689498666e-10  4.965098371686593e-23 9.998969993079911e-07 1.806957762789407e-10  4.964683486453523e-23 9.999999999999972e-07 3.210660079061538e-10  4.963928094281055e-23 9.998928151283132e-07 2.819208143511568e-10  4.963518268876098e-23 9.999999999999972e-07 4.260194768560998e-10  4.96274502693978e-23 9.998912733244546e-07 3.869402432389603e-10  4.96235103204718e-23 9.999999999999972e-07 5.31154823811502e-10  4.961646649818389e-23 9.998950814042031e-07 4.896813388795724e-10  4.961134681207764e-23 9.999999999999972e-07 6.407139675543703e-10  4.960551587706572e-23 9.998984968509009e-07 5.917312119519161e-10  4.959804858519994e-23 9.999999999999972e-07 7.604937467765757e-10  4.959397099627827e-23 9.999008892025507e-07 6.981106052264079e-10  4.958631038097335e-23 9.999999999999972e-07 8.662220911382774e-10  4.958168164519997e-23 9.998997843553723e-07 8.076983919218066e-10  4.957439975359272e-23 9.999999999999972e-07 9.73503485204662e-10  4.956944998760152e-23 9.999002325489919e-07 9.183195627464037e-10  4.956265137445577e-23 9.999999999999972e-07 1.079323477011368e-09  4.955701160829944e-23 9.999001231667993e-07 1.030245141333686e-09  4.955037124746373e-23 9.999999999999972e-07 1.189933027702161e-09  4.954504260456674e-23 9.998982844091941e-07 1.136213585229598e-09  4.953795753895248e-23 9.999999999999972e-07 1.301745773753337e-09  4.95326570268601e-23 9.998976157823142e-07 1.24710432463861e-09  4.952580296646326e-23 9.999999999999972e-07 1.411224430019871e-09  4.952079240654446e-23 9.998976103117896e-07 1.353965853378831e-09  4.951351198014521e-23 9.999999999999972e-07 1.521931792823871e-09  4.950848465901949e-23 9.998983522683755e-07 1.465566144299132e-09  4.950168439780321e-23 9.999999999999972e-07 1.628465183680133e-09  4.949596083982465e-23 9.998951804729e-07 1.575198883741935e-09  4.948986314853799e-23 9.999999999999972e-07 1.734941531251957e-09  4.948419816326444e-23 9.998943331654061e-07 1.680300347794794e-09  4.947802539128562e-23 9.999999999999972e-07 1.841566569553224e-09  4.947204082171488e-23 9.998946655509252e-07 1.790136331058826e-09  4.946621431693076e-23 9.999999999999972e-07 1.94795126968005e-09  4.946020709617708e-23 9.99892108100797e-07 1.894167604775536e-09  4.945456214115651e-23 9.999999999999972e-07 2.052904738629989e-09  4.944888902898389e-23 9.9989413409941e-07 1.998137689776096e-09  4.944221288381585e-23 9.999999999999972e-07 2.164136960145399e-09  4.943686726214237e-23 9.998955439939779e-07 2.107830033679632e-09  4.943011658234924e-23 9.999999999999972e-07 2.273090757700524e-09  4.942418563548505e-23 9.99894345271597e-07 2.220857249475358e-09  4.941823437199785e-23 9.999999999999972e-07 2.380116193922254e-09  4.941259591656728e-23 9.998933798797915e-07 2.324282765268723e-09  4.940646775074202e-23 9.999999999999972e-07 2.48610049612861e-09  4.940047976189092e-23 9.998932541666663e-07 2.433289671514713e-09  4.939334365366697e-23 9.999999999999972e-07 2.604311853522124e-09  4.938867733384375e-23 9.998981132890019e-07 2.544455614960977e-09  4.938133030301396e-23 9.999999999999972e-07 2.712518496570946e-09  4.937643184836779e-23 9.998987075647537e-07 2.655347418365747e-09  4.93696781272397e-23 9.999999999999972e-07 2.817471965520892e-09  4.936367840386018e-23 9.998961942793014e-07 2.767706948777752e-09  4.935697264094385e-23 9.999999999999972e-07 2.931912812216023e-09  4.935191827886016e-23 9.99893157186426e-07 2.870595645038234e-09  4.934490241972922e-23 9.999999999999972e-07 3.040631699744974e-09  4.933898856026648e-23 9.998933005028144e-07 2.987199513107585e-09  4.933323591259946e-23 9.999999999999972e-07 3.145714254069566e-09  4.932743645501888e-23 9.998952588225388e-07 3.093209946608827e-09  4.932044252956645e-23 9.999999999999972e-07 3.260946804190154e-09  4.9315403508462e-23 9.998982685853218e-07 3.204602856651364e-09  4.930877040695903e-23 9.999999999999972e-07 3.366079938240913e-09  4.930288707006424e-23 9.998981531409161e-07 3.317225466853973e-09  4.929668578862329e-23 9.999999999999972e-07 3.474928503508399e-09  4.929127171549851e-23 9.99897799432636e-07 3.421493571561815e-09  4.928393544307666e-23 9.999999999999972e-07 3.589773406413738e-09  4.927841396730108e-23 9.99894288617495e-07 3.533795056402489e-09  4.927173564470792e-23 9.999999999999972e-07 3.699659421188589e-09  4.926617894837817e-23 9.998938547822628e-07 3.643564474494327e-09  4.925921027606022e-23 9.999999999999972e-07 3.812477912337564e-09  4.925329327689987e-23 9.998919789341237e-07 3.757752436891448e-09  4.924688626668909e-23 9.999999999999972e-07 3.923482720360642e-09  4.924086338452027e-23 9.998939375081047e-07 3.871669528250443e-09  4.923407282833215e-23 9.999999999999972e-07 4.0388959127799e-09  4.922834416742477e-23 9.998971905087777e-07 3.987685611815999e-09  4.922225550927649e-23 9.999999999999972e-07 4.145336860171053e-09  4.921612427779543e-23 9.998961547760789e-07 4.096716859879607e-09  4.920979863216278e-23 9.999999999999972e-07 4.257538434426062e-09  4.920413545292229e-23 9.998948120005688e-07 4.203359818832004e-09  4.919634338725736e-23 9.999999999999972e-07 4.378732506310539e-09  4.91917602287651e-23 9.998984076434729e-07 4.318421571542116e-09  4.91841453417381e-23 9.999999999999972e-07 4.488602732820964e-09  4.917935448999469e-23 9.998964790201501e-07 4.42823390922657e-09  4.917249316596384e-23 9.999999999999972e-07 4.59355620177091e-09  4.916647063218494e-23 9.998933076729775e-07 4.541110036516295e-09  4.916057557547633e-23 9.999999999999972e-07 4.700900313928368e-09  4.915498820682143e-23 9.998920898148982e-07 4.64331667161374e-09  4.914884433435662e-23 9.999999999999972e-07 4.806565940198996e-09  4.914277769993321e-23 9.99888689551642e-07 4.749898876901129e-09  4.913691656895875e-23 9.999999999999972e-07 4.914001699801453e-09  4.913086662358446e-23 9.998933258127582e-07 4.861820576028981e-09  4.912417652637589e-23 9.999999999999972e-07 5.02875380185916e-09  4.911855400084297e-23 9.998965027853393e-07 4.975899794991126e-09  4.911208160507638e-23 9.999999999999972e-07 5.137695167974278e-09  4.910648032202423e-23 9.998974164922569e-07 5.085563532766849e-09  4.910040546388341e-23 9.999999999999972e-07 5.242864498225818e-09  4.909438158163567e-23 9.998985612193588e-07 5.195684025279884e-09  4.908692019192959e-23 9.999999999999972e-07 5.364329029718207e-09  4.908248157270506e-23 9.998974357663855e-07 5.301744323877852e-09  4.907515617966779e-23 9.999999999999972e-07 5.470289832195496e-09  4.907004184132386e-23 9.998960836027688e-07 5.412439299487027e-09  4.906247463312233e-23 9.999999999999972e-07 5.584515048788741e-09  4.905722680501922e-23 9.998968876945172e-07 5.528670976688059e-09  4.905075664085686e-23 9.999999999999972e-07 5.690061339989314e-09  4.904484851716334e-23 9.998950512880538e-07 5.638328275375082e-09  4.90388258015151e-23 9.999999999999972e-07 5.797524787216834e-09  4.903321302856425e-23 9.998936960698588e-07 5.741776221418337e-09  4.902709763433928e-23 9.999999999999972e-07 5.903162725862398e-09  4.902137674591305e-23 9.998954181391909e-07 5.850110047025269e-09  4.901486932734723e-23 9.999999999999972e-07 6.013305523487872e-09  4.900996903583551e-23 9.998983315609181e-07 5.9557749864611e-09  4.900238358687486e-23 9.999999999999972e-07 6.125767075765509e-09  4.899731722266155e-23 9.998986313778074e-07 6.070032205542058e-09  4.899073141110061e-23 9.999999999999972e-07 6.230720544715455e-09  4.898514012365184e-23 9.998953274323083e-07 6.176409817168223e-09  4.897907923532636e-23 9.999999999999972e-07 6.335674013665394e-09  4.897318738928258e-23 9.998930797666336e-07 6.28182281159635e-09  4.89673066150515e-23 9.999999999999972e-07 6.441712350231434e-09  4.896150497515263e-23 9.998961182925383e-07 6.390087169346064e-09  4.895543040371914e-23 9.999999999999972e-07 6.548683752093487e-09  4.89501441466522e-23 9.998982473796315e-07 6.494545502441531e-09  4.894364760853392e-23 9.999999999999972e-07 6.654813736104525e-09  4.893841583205424e-23 9.998970052058862e-07 6.598942595202283e-09  4.893178157211191e-23 9.999999999999972e-07 6.761693490521573e-09  4.892653626952659e-23 9.99896354656094e-07 6.705293632155707e-09  4.891998860201634e-23 9.999999999999972e-07 6.86791512197761e-09  4.891445763983496e-23 9.998958243290268e-07 6.813557929445341e-09  4.890813274050469e-23 9.999999999999972e-07 6.974703228949653e-09  4.890231037543154e-23 9.998944952076616e-07 6.921641638961701e-09  4.889632959549876e-23 9.999999999999972e-07 7.081016507850701e-09  4.889053860927254e-23 9.99896818590432e-07 7.029995665106389e-09  4.888432260744964e-23 9.999999999999972e-07 7.18916584165838e-09  4.887928672857366e-23 9.998988029964962e-07 7.133328002616035e-09  4.887248725306449e-23 9.999999999999972e-07 7.295769236855886e-09  4.886690814235846e-23 9.998970339664384e-07 7.243055365090584e-09  4.886022396497455e-23 9.999999999999972e-07 7.406227116200258e-09  4.885534946644165e-23 9.998975042439787e-07 7.347636939734546e-09  4.884804169425722e-23 9.999999999999972e-07 7.515955255926421e-09  4.884296510625107e-23 9.998937532003507e-07 7.455434295985567e-09  4.883618360663033e-23 9.999999999999972e-07 7.622763413962017e-09  4.883055270301148e-23 9.998934137946383e-07 7.566895879482343e-09  4.882439286265e-23 9.999999999999972e-07 7.728964994354507e-09  4.881854008772649e-23 9.998959100178791e-07 7.677592122165583e-09  4.881274068687575e-23 9.999999999999972e-07 7.833918463304453e-09  4.880697784963158e-23 9.998973883878604e-07 7.783213874498589e-09  4.880087258164428e-23 9.999999999999972e-07 7.940816851900514e-09  4.87957149314054e-23 9.998999337615025e-07 7.887206596793702e-09  4.878828549749057e-23 9.999999999999972e-07 8.054191226909213e-09  4.87836806690754e-23 9.999009217926022e-
[...]
<PointData  Vectors="f_25"> 
<DataArray  type="Float64"  Name="f_25"  NumberOfComponents="3" format="ascii">0.0000000000000000e+00 8.3539854214439340e-10 -6.2878682760327341e-11  0.0000000000000000e+00 8.3632344353864721e-10 -6.2879084415923209e-11  0.0000000000000000e+00 8.3567589657280129e-10 -6.3759684305574871e-11  0.0000000000000000e+00 8.3447510366131500e-10 -6.2878274945828794e-11  0.0000000000000000e+00 8.3481015298636725e-10 -6.3795194140736335e-11  0.0000000000000000e+00 8.3357728013989321e-10 -6.2877863330764422e-11  0.0000000000000000e+00 8.3391179958348481e-10 -6.3808115564454959e-11  0.0000000000000000e+00 8.3267768958976547e-10 -6.2877476737593421e-11  0.0000000000000000e+00 8.3303273603268697e-10 -6.3775334503017403e-11  0.0000000000000000e+00 8.3173996668961650e-10 -6.2877148592234489e-11  0.0000000000000000e+00 8.3215935900378026e-10 -6.3745983815872175e-11  0.0000000000000000e+00 8.3071446678199349e-10 -6.2876934487879573e-11  0.0000000000000000e+00 8.3124865186206667e-10 -6.3725468745805172e-11  0.0000000000000000e+00 8.2980898510021601e-10 -6.2876917761726810e-11  0.0000000000000000e+00 8.3031018708678933e-10 -6.3735044520992173e-11  0.0000000000000000e+00 8.2888993345657759e-10 -6.2877096879429848e-11  0.0000000000000000e+00 8.2936256853154482e-10 -6.3731519257294401e-11  0.0000000000000000e+00 8.2798310304895271e-10 -6.2877510525118400e-11  0.0000000000000000e+00 8.2840344182425096e-10 -6.3733027876152527e-11  0.0000000000000000e+00 8.2703490981670054e-10 -6.2878244714047600e-11  0.0000000000000000e+00 8.2749502224101016e-10 -6.3749598313434735e-11  0.0000000000000000e+00 8.2607604512077764e-10 -6.2879350240267501e-11  0.0000000000000000e+00 8.2654404927218815e-10 -6.3756529304955320e-11  0.0000000000000000e+00 8.2513685185005493e-10 -6.2880843387221141e-11  0.0000000000000000e+00 8.2562726250178012e-10 -6.3758109445658517e-11  0.0000000000000000e+00 8.2418674837955051e-10 -6.2882820896735832e-11  0.0000000000000000e+00 8.2466945708045877e-10 -6.3753792537515835e-11  0.0000000000000000e+00 8.2327215092260774e-10 -6.2885209701967087e-11  0.0000000000000000e+00 8.2372811935512318e-10 -6.3783491111526401e-11  0.0000000000000000e+00 8.2235772036333393e-10 -6.2888113573935447e-11  0.0000000000000000e+00 8.2282535730543325e-10 -6.3793648263320585e-11  0.0000000000000000e+00 8.2144165994994374e-10 -6.2891585329597488e-11  0.0000000000000000e+00 8.2188158252643134e-10 -6.3794377015603541e-11  0.0000000000000000e+00 8.2052739554839059e-10 -6.2895667108302212e-11  0.0000000000000000e+00 8.2098728981063075e-10 -6.3820278412981473e-11  0.0000000000000000e+00 8.1962513677476494e-10 -6.2900322172660345e-11  0.0000000000000000e+00 8.2009332767430887e-10 -6.3807423515583320e-11  0.0000000000000000e+00 8.1866860000603965e-10 -6.2905975169600359e-11  0.0000000000000000e+00 8.1914984709187829e-10 -6.3800772609243138e-11  0.0000000000000000e+00 8.1773138788904368e-10 -6.2912280846983695e-11  0.0000000000000000e+00 8.1817728077125105e-10 -6.3817460232218148e-11  0.0000000000000000e+00 8.1681051364840333e-10 -6.2919241724531876e-11  0.0000000000000000e+00 8.1728706291702608e-10 -6.3832317651117572e-11  0.0000000000000000e+00 8.1589838261061114e-10 -6.2926932793936052e-11  0.0000000000000000e+00 8.1634856281424347e-10 -6.3841089186667714e-11  0.0000000000000000e+00 8.1488074488426047e-10 -6.2936463984308040e-11  0.0000000000000000e+00 8.1539145598902655e-10 -6.3808022141295625e-11  0.0000000000000000e+00 8.1394901235890394e-10 -6.2946121375605387e-11  0.0000000000000000e+00 8.1443627925184895e-10 -6.3812494822234902e-11  0.0000000000000000e+00 8.1304512232351764e-10 -6.2956390298113830e-11  0.0000000000000000e+00 8.1346806819757445e-10 -6.3844766951387010e-11  0.0000000000000000e+00 8.1205936388532341e-10 -6.2968619880044873e-11  0.0000000000000000e+00 8.1258121304741952e-10 -6.3881521522702585e-11  0.0000000000000000e+00 8.1112278723019762e-10 -6.2981281089495522e-11  0.0000000000000000e+00 8.1157618725346174e-10 -6.3893390110556544e-11  0.0000000000000000e+00 8.1021743928782881e-10 -6.2994506168217269e-11  0.0000000000000000e+00 8.1066247219534987e-10 -6.3889458457652469e-11  0.0000000000000000e+00 8.0922456300476518e-10 -6.3010156069402751e-11  0.0000000000000000e+00 8.0970236555265260e-10 -6.3878183644839110e-11  0.0000000000000000e+00 8.0831869752765957e-10 -6.3025506331462107e-11  0.0000000000000000e+00 8.0873138874250343e-10 -6.3895075929850426e-11  0.0000000000000000e+00 8.0738080611054139e-10 -6.3042490477245602e-11  0.0000000000000000e+00 8.0783238991737933e-10 -6.3913867241886292e-11  0.0000000000000000e+00 8.0639127877436189e-10 -6.3061655491483558e-11  0.0000000000000000e+00 8.0686382511578173e-10 -6.3962166878574612e-11  0.0000000000000000e+00 8.0544452474004656e-10 -6.3081231541698944e-11  0.0000000000000000e+00 8.0591736242933099e-10 -6.3984762864508744e-11  0.0000000000000000e+00 8.0447263729127103e-10 -6.3102603755219548e-11  0.0000000000000000e+00 8.0493273842347537e-10 -6.4021756813685414e-11  0.0000000000000000e+00 8.0351651295785042e-10 -6.3124922985655166e-11  0.0000000000000000e+00 8.0395096416991604e-10 -6.4027031004030821e-11  0.0000000000000000e+00 8.0252259668723650e-10 -6.3149500588238990e-11  0.0000000000000000e+00 8.0295145586965341e-10 -6.4022937653208954e-11  0.0000000000000000e+00 8.0160615974611567e-10 -6.3173425431819512e-11  0.0000000000000000e+00 8.0201183144988103e-10 -6.4055550569903634e-11  0.0000000000000000e+00 8.0064040190033399e-10 -6.3199973991567873e-11  0.0000000000000000e+00 8.0109294413936837e-10 -6.4091477285128034e-11  0.0000000000000000e+00 7.9959755858449627e-10 -6.3230209200877744e-11  0.0000000000000000e+00 8.0010248616761017e-10 -6.4088258897007553e-11  0.0000000000000000e+00 7.9865251910419750e-10 -6.3259015760410739e-11  0.0000000000000000e+00 7.9915680951611083e-10 -6.4132543555350235e-11  0.0000000000000000e+00 7.9775017143124052e-10 -6.3287807365663658e-11  0.0000000000000000e+00 7.9818491854663014e-10 -6.4189616493049429e-11  0.0000000000000000e+00 7.9682761084271468e-10 -6.3318534609488907e-11  0.0000000000000000e+00 7.9730546414155607e-10 -6.4228303620697504e-11  0.0000000000000000e+00 7.9591992721208378e-10 -6.3350065207968417e-11  0.0000000000000000e+00 7.9638837400848618e-10 -6.4288140731520474e-11  0.0000000000000000e+00 7.9499750788336033e-10 -6.3383476878955691e-11  0.0000000000000000e+00 7.9542717441584251e-10 -6.4281985570557610e-11  0.0000000000000000e+00 7.9401287001100419e-10 -6.3420639530191895e-11  0.0000000000000000e+00 7.9444782167289554e-10 -6.4290448041215029e-11  0.0000000000000000e+00 7.9307869061495499e-10 -6.3457326640969772e-11  0.0000000000000000e+00 7.9350660660818610e-10 -6.4318332811868191e-11  0.0000000000000000e+00 7.9217745925517112e-10 -6.3494064482236602e-11  0.0000000000000000e+00 7.9256215317552090e-10 -6.4345752899071571e-11  0.0000000000000000e+00 7.9113734821784434e-10 -6.3538109368839572e-11  0.0000000000000000e+00 7.9165270492323237e-10 -6.4392525910681006e-11  0.0000000000000000e+00 7.9023070560537534e-10 -6.3577950501269559e-11  0.0000000000000000e+00 7.9070414944163473e-10 -6.4444243619346998e-11  0.0000000000000000e+00 7.8925418018021861e-10 -6.3622430993606808e-11  0.0000000000000000e+00 7.8970940960183962e-10 -6.4481050216044911e-11  0.0000000000000000e+00 7.8835265488593377e-10 -6.3664887639446195e-11  0.0000000000000000e+00 7.8877122483191114e-10 -6.4539345404121383e-11  0.0000000000000000e+00 7.8743555508517383e-10 -6.3709469061083220e-11  0.0000000000000000e+00 7.8788696971062648e-10 -6.4592385060135352e-11  0.0000000000000000e+00 7.8653488139306789e-10 -6.3754657211197802e-11  0.0000000000000000e+00 7.8696249577626577e-10 -6.4622516665670222e-11  0.0000000000000000e+00 7.8559670959955544e-10 -6.3803186029615993e-11  0.0000000000000000e+00 7.8606200851030658e-10 -6.4642738982177535e-11  0.0000000000000000e+00 7.8463985740714735e-10 -6.3854235430682507e-11  0.0000000000000000e+00 7.8508865114384304e-10 -6.4690290185829832e-11  0.0000000000000000e+00 7.8374786516569028e-10 -6.3903202185504410e-11  0.0000000000000000e+00 7.8418251751184913e-10 -6.4766326733964490e-11  0.0000000000000000e+00 7.8285686157514730e-10 -6.3953483778437557e-11  0.0000000000000000e+00 7.8328576471087602e-10 -6.4834237905839796e-11  0.0000000000000000e+00 7.8195768800039479e-10 -6.4005641021352212e-11  0.0000000000000000e+00 7.8236722979294110e-10 -6.4860024655608526e-11  0.0000000000000000e+00 7.8105169247383416e-10 -6.4059635207562104e-11  0.0000000000000000e+00 7.8148186621547978e-10 -6.4893004577280106e-11  0.0000000000000000e+00 7.8015403403605647e-10 -6.4114508981902126e-11  0.0000000000000000e+00 7.8059723757932530e-10 -6.4955696165556113e-11  0.0000000000000000e+00 7.7925122848446033e-10 -6.4171116691106811e-11  0.0000000000000000e+00 7.7969735840036808e-10 -6.5015646920933398e-11  0.0000000000000000e+00 7.7835524152742010e-10 -6.4228696084410141e-11  0.0000000000000000e+00 7.7878260435726887e-10 -6.5076861742291422e-11  0.0000000000000000e+00 7.7745577844466485e-10 -6.4287897940203999e-11  0.0000000000000000e+00 7.7787043186664697e-10 -6.5146028654683506e-11  0.0000000000000000e+00 7.7656165139531024e-10 -6.4348157495494672e-11  0.0000000000000000e+00 7.7695846376979524e-10 -6.5185946939337226e-11  0.0000000000000000e+00 7.7565347646989000e-10 -6.4410800766949931e-11  0.0000000000000000e+00 7.7609002519513621e-10 -6.5227218956133883e-11  0.0000000000000000e+00 7.7475980010682899e-10 -6.4473804392198585e-11  0.0000000000000000e+00 7.7516814189837073e-10 -6.5304791485482257e-11  0.0000000000000000e+00 7.7383529491312899e-10 -6.4540443785644612e-11  0.0000000000000000e+00 7.7429156901554101e-10 -6.5361913314091019e-11  0.0000000000000000e+00 7.7291853132974445e-10 -6.4607934912190746e-11  0.0000000000000000e+00 7.7338815577641220e-10 -6.5457348202705747e-11  0.0000000000000000e+00 7.7202771851376328e-10 -6.4674909441478395e-11  0.0000000000000000e+00 7.7245682346600799e-10 -6.5527809083577748e-11  0.0000000000000000e+00 7.7114357520501588e-10 -6.4742764070220765e-11  0.0000000000000000e+00 7.7153456803334409e-10 -6.5575489538160018e-11  0.0000000000000000e+00 7.7027140744780085e-10 -6.4811011484526539e-11  0.0000000000000000e+00 7.7065594089694783e-10 -6.5629762612606047e-11  0.0000000000000000e+00 7.6938473366582962e-10 -6.4881756177885920e-11  0.0000000000000000e+00 7.6979285199473091e-10 -6.5675344876952587e-11  0.0000000000000000e+00 7.6844626088626970e-10 -6.4958114856063703e-11  0.0000000000000000e+00 7.6888622265811991e-10 -6.5738508458882919e-11  0.0000000000000000e+00 7.6755444415573847e-10 -6.5032029984284321e-11  0.0000000000000000e+00 7.6795802502904065e-10 -6.5838542693431583e-11  0.0000000000000000e+00 7.6668931498531167e-10 -6.5105021654107374e-11  0.0000000000000000e+00 7.6709193763573453e-10 -6.5918044163551662e-11  0.0000000000000000e+00 7.6580662493403030e-10 -6.5180801759295792e-11  0.0000000000000000e+00 7.6625324781252720e-10 -6.5979276095488848e-11  0.0000000000000000e+00 7.6491892936231031e-10 -6.5258326612457314e-11  0.0000000000000000e+00 7.6536979474730452e-10 -6.6056859215644789e-11  0.0000000000000000e+00 7.6405406042690135e-10 -6.5335120475599673e-11  0.0000000000000000e+00 7.6441671937384589e-10 -6.6146608896356582e-11  0.0000000000000000e+00 7.6319649917969515e-10 -6.5412518300566186e-11  0.0000000000000000e+00 7.6355437777625085e-10 -6.6226518051299254e-11  0.0000000000000000e+00 7.6232024960294885e-10 -6.5492941440883799e-11  0.0000000000000000e+00 7.6272555337565298e-10 -6.6274763355306266e-11  0.0000000000000000e+00 7.6146211492113566e-10 -6.5572839695892551e-11  0.0000000000000000e+00 7.6185118301668075e-10 -6.6389582016866517e-11  0.0000000000000000e+00 7.6058945729016730e-10 -6.5655332770080363e-11  0.0000000000000000e+00 7.6094547943597539e-10 -6.6485386488305143e-11  0.0000000000000000e+00 7.5965812222928137e-10 -6.5744786959232353e-11  0.0000000000000000e+00 7.6002474072305930e-10 -6.6556980865214728e-11  0.0000000000000000e+00 7.5878189447990730e-10 -6.5830237251124714e-11  0.0000000000000000e+00 7.5916014611625957e-10 -6.6621081179487888e-11  0.0000000000000000e+00 7.5785404268209698e-10 -6.5922035626393733e-11  0.0000000000000000e+00 7.5822942440273444e-10 -6.6721200425828571e-11  0.0000000000000000e+00 7.5700035656690270e-10 -6.6007625416699529e-11  0.0000000000000000e+00 7.5733943073543495e-10 -6.6808346996425800e-11  0.0000000000000000e+00 7.5603392880027560e-10 -6.6105932240209692e-11  0.0000000000000000e+00 7.5649310205841341e-10 -6.6874973027052637e-11  0.0000000000000000e+00 7.5515418365381727e-10 -6.6196665270725961e-11  0.0000000000000000e+00 7.5556233950621981e-10 -6.6970448432139537e-11  0.0000000000000000e+00 7.5426101691205188e-10 -6.6289973602293548e-11  0.0000000000000000e+00 7.5469494409258360e-10 -6.7069701024996890e-11  0.0000000000000000e+00 7.5341950532332840e-10 -6.6379003336004339e-11  0.0000000000000000e+00 7.5382770697353340e-10 -6.7144759611150415e-11  0.0000000000000000e+00 7.5257401307656955e-10 -6.6469568861310654e-11  0.0000000000000000e+00 7.5292273704275903e-10 -6.7233494942746711e-11  0.0000000000000000e+00 7.5173683745527988e-10 -6.6560282834385196e-11  0.0000000000000000e+00 7.5208675486435247e-10 -6.7330800741059257e-11  0.0000000000000000e+00 7.5089716730341992e-10 -6.6652324783943515e-11  0.0000000000000000e+00 7.5123909892856981e-10 -6.7426990907878364e-11  0.0000000000000000e+00 7.5003789865787710e-10 -6.6747548756365004e-11  0.0000000000000000e+00 7.5041943456391322e-10 -6.7521810689370294e-11  0.0000000000000000e+00 7.4917473332948943e-10 -6.6844287711718812e-11  0.0000000000000000e+00 7.4955672336836343e-10 -6.7621199266672789e-11  0.0000000000000000e+00 7.4834507722249098e-10 -6.6938264095965084e-11  0.0000000000000000e+00 7.4870173074460882e-10 -6.7717501258397366e-11  0.0000000000000000e+00 7.4747174622278886e-10 -6.7038168740313760e-11  0.0000000000000000e+00 7.4784982301077373e-10 -6.7826795358671231e-11  0.0000000000000000e+00 7.4653210940551635e-10 -6.7146879503404695e-11  0.0000000000000000e+00 7.4694162289394378e-10 -6.7901375941116824e-11  0.0000000000000000e+00 7.4569277914759929e-10 -6.7244919538365831e-11  0.0000000000000000e+00 7.4606861482566985e-10 -6.8001314570997963e-11  0.0000000000000000e+00 7.4488729409564390e-10 -6.7339878063220281e-11  0.0000000000000000e+00 7.4522075964574503e-10 -6.8100185047348516e-11  0.0000000000000000e+00 7.4401552804099614e-10 -6.7443704479097525e-11  0.0000000000000000e+00 7.4441310335969577e-10 -6.8170253716193776e-11  0.0000000000000000e+00 7.4320638890480109e-10 -6.7540813985153657e-11  0.0000000000000000e+00 7.4355809704255632e-10 -6.8298669527031536e-11  0.0000000000000000e+00 7.4238795536102613e-10 -6.7639907275717047e-11  0.0000000000000000e+00 7.4273679165634287e-10 -6.8387153484256967e-11  0.0000000000000000e+00 7.4151411710566630e-10 -6.7746655835909591e-11  0.0000000000000000e+00 7.4186597949993595e-10 -6.8483516215337699e-11  0.0000000000000000e+00 7.4069647503061907e-10 -6.7847359263094808e-11  0.0000000000000000e+00 7.4104325820395908e-10 -6.8577424007291452e-11  0.0000000000000000e+00 7.3983573024067668e-10 -6.7954324853912063e-11  0.0000000000000000e+00 7.4020432149543264e-10 -6.8664385672805475e-11  0.0000000000000000e+00 7.3905129547683997e-10 -6.8052452353368114e-11  0.0000000000000000e+00 7.3939576572643984e-10 -6.8787037613373531e-11  0.0000000000000000e+00 7.3826979681605000e-10 -6.8150854156752762e-11  0.0000000000000000e+00 7.3862456597728323e-10 -6.8900171922771857e-11  0.0000000000000000e+00 7.3748805095151258e-10 -6.8250019865332743e-11  0.0000000000000000e+00 7.3780876481506965e-10 -6.8997754747433723e-11  0.0000000000000000e+00 7.3667876942844062e-10 -6.8353287306781921e-11  0.0000000000000000e+00 7.3703714386621990e-10 -6.9105576910734384e-11  0.0000000000000000e+00 7.3584542055996391e-10 -6.8460281621287024e-11  0.0000000000000000e+00 7.3623118397730641e-10 -6.9213716026927649e-11  0.0000000000000000e+00 7.3507656736373086e-10 -6.8559652975611026e-11  0.0000000000000000e+00 7.3541850685004113e-10 -6.9293200931999828e-11  0.0000000000000000e+00 7.3430468506273681e-10 -6.8659983356819617e-11  0.0000000000000000e+00 7.3461885793171013e-10 -6.9383677741903765e-11  0.0000000000000000e+00 7.3352577720519708e-10 -6.8761753469048399e-11  0.0000000000000000e+00 7.3387900283748949e-10 -6.9476348162499503e-11  0.0000000000000000e+00 7.3275972129900997e-10 -6.8862414636943618e-11  0.0000000000000000e+00 7.3307172389795002e-10 -6.9572538198539028e-11  0.0000000000000000e+00 7.3196150675403277e-10 -6.8967768293477994e-11  0.0000000000000000e+00 7.3231955086665705e-10 -6.9687172286481562e-11  0.0000000000000000e+00 7.3116185175807143e-10 -6.9073882719995213e-11  0.0000000000000000e+00 7.3151874417824224e-10 -6.9783091745577085e-11  0.0000000000000000e+00 7.3040316742431554e-10 -6.9175037178284588e-11  0.0000000000000000e+00 7.3072404316813239e-10 -6.9880100027883562e-11  0.0000000000000000e+00 7.2963467452037828e-10 -6.9277832294946325e-11  0.0000000000000000e+00 7.2998363249127314e-10 -6.9987426193410863e-11  0.0000000000000000e+00 7.2888053247797147e-10 -6.9379132033088259e-11  0.0000000000000000e+00 7.2921654390043967e-10 -7.0071550781853687e-11  0.0000000000000000e+00 7.2813063364483722e-10 -6.9480188350489784e-11  0.0000000000000000e+00 7.2846194911927029e-10 -7.0168006486457513e-11  0.0000000000000000e+00 7.2738404957451274e-10 -6.9581148217111437e-11  0.0000000000000000e+00 7.2767721897648066e-10 -7.0276101921950663e-11  0.0000000000000000e+00 7.2664051364814049e-10 -6.9682045353414671e-11  0.0000000000000000e+00 7.2693184587280297e-10 -7.0363677126789895e-11  0.0000000000000000e+00 7.2585893158636771e-10 -6.9788423843008429e-11  0.0000000000000000e+00 7.2621958814788640e-10 -7.0453945161574180e-11  0.0000000000000000e+00 7.2510526578270424e-10 -6.9891218271550453e-11  0.0000000000000000e+00 7.2541057440843564e-10 -7.0580686373011125e-11  0.0000000000000000e+00 7.2436977437724506e-10 -6.9991777629607199e-11  0.0000000000000000e+00 7.2466613288457439e-10 -7.0673634071007152e-11  0.0000000000000000e+00 7.2364428987171150e-10 -7.0091141305163245e-11  0.0000000000000000e+00 7.2396178627600337e-10 -7.0767131954893896e-11  0.0000000000000000e+00 7.2292967252642361e-10 -7.0189284391739948e-11  0.0000000000000000e+00 7.2323652654934889e-10 -7.0835992203073885e-11  0.0000000000000000e+00 7.2216750837925836e-10 -7.0294132369143958e-11  0.0000000000000000e+00 7.2250692227833929e-10 -7.0932321210311921e-11  0.0000000000000000e+00 7.2144190561731822e-10 -7.0393975392485002e-11  0.0000000000000000e+00 7.2175826763973809e-10 -7.1053463576594226e-11  0.0000000000000000e+00 7.2072193696341938e-10 -7.0493185593279827e-11  0.0000000000000000e+00 7.2102646785656465e-10 -7.1138360992371020e-11  0.0000000000000000e+00 7.1991459440943796e-10 -7.0604525134243467e-11  0.0000000000000000e+00 7.2025500344061010e-10 -7.1257143235348310e-11  0.0000000000000000e+00 7.1921174314001952e-10 -7.0701363160868926e-11  0.0000000000000000e+00 7.1949693176129026e-10 -7.1379519480068580e-11  0.0000000000000000e+00 7.1851939694326533e-10 -7.0796772339291187e-11  0.0000000000000000e+00 7.1878677381974041e-10 -7.1466245853384903e-11  0.0000000000000000e+00 7.1781072657198494e-10 -7.0894452770424608e-11  0.0000000000000000e+00 7.1811363053748258e-10 -7.1541728851894283e-11  0.0000000000000000e+00 7.1712512421804019e-10 -7.0988862177834818e-11  0.0000000000000000e+00 7.1738704902755741e-10 -7.1645832422035889e-11  0.0000000000000000e+00 7.1633678638625832e-10 -7.1097375005542571e-11  0.0000000000000000e+00 7.1665963214647185e-10 -7.1740207955608170e-11  0.0000000000000000e+00 7.1565683466078662e-10 -7.1190802409691868e-11  0.0000000000000000e+00 7.1593730013412039e-10 -7.1835846300079788e-11  0.0000000000000000e+00 7.1496597777875747e-10 -7.1285564375876821e-11  0.0000000000000000e+00 7.1526618219555272e-10 -7.1929494354194250e-11  0.0000000000000000e+00 7.1427612788956547e-10 -7.1379922141235309e-11  0.0000000000