<?xml version="1.0"?>
<VTKFile type="UnstructuredGrid"  version="0.1"  >
<UnstructuredGrid>
<Piece  NumberOfPoints="10186" NumberOfCells="19856">
<Points>
<DataArray  type="Float64"  NumberOfComponents="3"  format="ascii">4.63254383609858e-23 9.999999999999972e-07 3.023754611937595e-08  4.633709867519689e-23 9.999999999999972e-07 3.013251934590372e-08  4.631962282007746e-23 9.998951144266158e-07 3.018504228173001e-08  4.633147222522518e-23 9.998936697482602e-07 3.007686765015871e-08  4.631344170515283e-23 9.999999999999972e-07 3.034560238885409e-08  4.630796566557138e-23 9.998973546934168e-07 3.029228086191063e-08  4.630178283234724e-23 9.999999999999972e-07 3.045061617929963e-08  4.629570637676369e-23 9.998958912630077e-07 3.040123928851382e-08  4.628899614634556e-23 9.999999999999972e-07 3.056578840792463e-08  4.62843638218405e-23 9.998965749749843e-07 3.05040876527413e-08  4.627730765590912e-23 9.999999999999972e-07 3.067106897027275e-08  4.627179903123447e-23 9.998957376678599e-07 3.061642391819964e-08  4.626534731473833e-23 9.999999999999972e-07 3.077879814635271e-08  4.626009335820544e-23 9.998951863034553e-07 3.072130788317836e-08  4.625364864939153e-23 9.999999999999972e-07 3.088417035614584e-08  4.624760313225325e-23 9.998959823356622e-07 3.083460586927334e-08  4.624149598002669e-23 9.999999999999972e-07 3.099363187059201e-08  4.623618103230474e-23 9.998967934213799e-07 3.093829808513481e-08  4.62289051000981e-23 9.999999999999972e-07 3.110704043490139e-08  4.622374539005209e-23 9.998933150555642e-07 3.104683002694943e-08  4.621725292432384e-23 9.999999999999972e-07 3.121199390385133e-08  4.62112262394047e-23 9.998943587000166e-07 3.116063615578312e-08  4.620560074854959e-23 9.999999999999972e-07 3.131694737280127e-08  4.619962601717434e-23 9.998936968621327e-07 3.126445983092732e-08  4.619385763010376e-23 9.999999999999972e-07 3.142271998051487e-08  4.618787849200332e-23 9.998948084855472e-07 3.137138375430719e-08  4.618159099062103e-23 9.999999999999972e-07 3.153320804652192e-08  4.617651677109279e-23 9.998979947788357e-07 3.147690733171359e-08  4.616915853390935e-23 9.999999999999972e-07 3.164518966134995e-08  4.616383148763849e-23 9.998949670813474e-07 3.158813850990098e-08  4.615737064775293e-23 9.999999999999972e-07 3.175136550075309e-08  4.615176471902175e-23 9.998961342732216e-07 3.169799349106716e-08  4.614550970230213e-23 9.999999999999972e-07 3.185819939977804e-08  4.614056891262698e-23 9.998991296383468e-07 3.180183171520749e-08  4.613371164123535e-23 9.999999999999972e-07 3.196446688662618e-08  4.612820885146466e-23 9.99896893243458e-07 3.191092485400846e-08  4.61218608706949e-23 9.999999999999972e-07 3.207120913820612e-08  4.611609318837596e-23 9.998944323946736e-07 3.201759219676725e-08  4.611005263471776e-23 9.999999999999972e-07 3.217756827249928e-08  4.610441820452491e-23 9.998968877691948e-07 3.212520647713086e-08  4.609761904505872e-23 9.999999999999972e-07 3.228956009200991e-08  4.609305582873401e-23 9.998971742423502e-07 3.222783613304209e-08  4.608541865605466e-23 9.999999999999972e-07 3.239945142675479e-08  4.607986897348222e-23 9.998928787116944e-07 3.234231723518261e-08  4.607376648028042e-23 9.999999999999972e-07 3.250440489570474e-08  4.606739794153022e-23 9.998940670406979e-07 3.245583463389004e-08  4.606191363389845e-23 9.999999999999972e-07 3.26111658448029e-08  4.605560273540471e-23 9.998954934309295e-07 3.256350279594475e-08  4.604936567081649e-23 9.999999999999972e-07 3.272418784852323e-08  4.604401041741981e-23 9.99894929574267e-07 3.266735325719662e-08  4.603707867001608e-23 9.999999999999972e-07 3.283485931297571e-08  4.603099884310583e-23 9.998935328921417e-07 3.278315441753514e-08  4.602441552690113e-23 9.999999999999972e-07 3.294891876620342e-08  4.601911647487011e-23 9.998955193585822e-07 3.289216774229299e-08  4.601253422677419e-23 9.999999999999972e-07 3.305593600385214e-08  4.600674145855264e-23 9.998949639673781e-07 3.300307658884114e-08  4.600088205099993e-23 9.999999999999972e-07 3.316088947280208e-08  4.599523679187853e-23 9.998945427107831e-07 3.310628015733908e-08  4.598893966919678e-23 9.999999999999972e-07 3.326845688527933e-08  4.598353219551571e-23 9.998949148521517e-07 3.321207793034401e-08  4.59761621526589e-23 9.999999999999972e-07 3.338354652271675e-08  4.597089232533488e-23 9.998967493430461e-07 3.332776225051128e-08  4.59644398363597e-23 9.999999999999972e-07 3.348913176135076e-08  4.595862082387119e-23 9.998952696289766e-07 3.343681439527996e-08  4.595278766058545e-23 9.999999999999972e-07 3.35940852303007e-08  4.594724392346843e-23 9.998966809667545e-07 3.354069974188685e-08  4.59411354848112e-23 9.999999999999972e-07 3.369903869925064e-08  4.59355858567023e-23 9.998949809568727e-07 3.364400626229273e-08  4.5929148649909e-23 9.999999999999972e-07 3.380700650964837e-08  4.592382110928411e-23 9.99894116329777e-07 3.374910905937429e-08  4.591748665320397e-23 9.999999999999972e-07 3.391204843767873e-08  4.591214539269366e-23 9.998965429898883e-07 3.385670122525768e-08  4.5905489997371e-23 9.999999999999972e-07 3.402010470715687e-08  4.590045503661344e-23 9.998974073548646e-07 3.396286295680739e-08  4.589383782159675e-23 9.999999999999972e-07 3.412505817610682e-08  4.588782902035105e-23 9.998958683445499e-07 3.407504899076167e-08  4.588218550552167e-23 9.999999999999972e-07 3.423001290877428e-08  4.587607861927407e-23 9.998964552824003e-07 3.418147413243542e-08  4.586939226278948e-23 9.999999999999972e-07 3.434524419517735e-08  4.586435401296852e-23 9.998969238740665e-07 3.428754858927918e-08  4.585770561215276e-23 9.999999999999972e-07 3.44505081860828e-08  4.585191200133992e-23 9.99894681184113e-07 3.439737357719439e-08  4.584558374644287e-23 9.999999999999972e-07 3.455969224587104e-08  4.58399998579277e-23 9.998972693125402e-07 3.450725675488646e-08  4.583295004814924e-23 9.999999999999972e-07 3.467348648372602e-08  4.582747644157818e-23 9.998946118375595e-07 3.461740018631597e-08  4.582129787237499e-23 9.999999999999972e-07 3.477843995267597e-08  4.581511051569596e-23 9.99892516720876e-07 3.472668742802293e-08  4.580956661133346e-23 9.999999999999972e-07 3.488410575838643e-08  4.580396405275607e-23 9.998954170831295e-07 3.482998620296162e-08  4.579764904076776e-23 9.999999999999972e-07 3.499144969110405e-08  4.579151379744658e-23 9.998929996130698e-07 3.493971066324696e-08  4.578544990925855e-23 9.999999999999972e-07 3.510132969934237e-08  4.577910866426126e-23 9.998921567928083e-07 3.505060334936718e-08  4.57725115930397e-23 9.999999999999972e-07 3.521786769154638e-08  4.576775624531166e-23 9.998963521784955e-07 3.515705223455672e-08  4.576071465336655e-23 9.999999999999972e-07 3.53241250777786e-08  4.575520837182054e-23 9.998958873098895e-07 3.526960856270851e-08  4.574886276143248e-23 9.999999999999972e-07 3.543087742997448e-08  4.574320254094233e-23 9.998951707732286e-07 3.537703093698637e-08  4.573705564684896e-23 9.999999999999972e-07 3.553722646365169e-08  4.573070747197345e-23 9.998950254334598e-07 3.548943117312203e-08  4.572462493225079e-23 9.999999999999972e-07 3.564919238691632e-08  4.571874947700469e-23 9.998930225965664e-07 3.559513637959943e-08  4.57122206829666e-23 9.999999999999972e-07 3.576091993182451e-08  4.570628184927067e-23 9.998939689119554e-07 3.570838110222265e-08  4.569967478833542e-23 9.999999999999972e-07 3.587392330459651e-08  4.56947795004089e-23 9.998971131023806e-07 3.581512924074334e-08  4.568763050792625e-23 9.999999999999972e-07 3.598240853812188e-08  4.568206806055352e-23 9.998966743338849e-07 3.592918494383978e-08  4.567447931405414e-23 9.999999999999972e-07 3.61008639617657e-08  4.567019272782863e-23 9.998991393186897e-07 3.6038613416714e-08  4.56621927676349e-23 9.999999999999972e-07 3.621153133351643e-08  4.565692596619736e-23 9.998983720235017e-07 3.615734248700402e-08  4.56493893909537e-23 9.999999999999972e-07 3.632685389841741e-08  4.564488995645397e-23 9.998972659038033e-07 3.626464710529634e-08  4.56377030213322e-23 9.999999999999972e-07 3.643211535816294e-08  4.563251610338461e-23 9.998985919686415e-07 3.637742693027909e-08  4.562570636549922e-23 9.999999999999972e-07 3.65401716276411e-08  4.562076668506598e-23 9.998991224786104e-07 3.648378679217121e-08  4.561405418972497e-23 9.999999999999972e-07 3.664512509659104e-08  4.560849101180102e-23 9.99898764999867e-07 3.659399874851146e-08  4.560240174834712e-23 9.999999999999972e-07 3.675008095788545e-08  4.559701886547289e-23 9.998972161650823e-07 3.669578182158363e-08  4.5590394760298e-23 9.999999999999972e-07 3.685823029169315e-08  4.558514229744119e-23 9.998975825426547e-07 3.680312281388007e-08  4.557840870228477e-23 9.999999999999972e-07 3.696619110449727e-08  4.557247117913516e-23 9.998941423210046e-07 3.691381387959284e-08  4.556675652651052e-23 9.999999999999972e-07 3.707114457344721e-08  4.556033122971845e-23 9.998929808132508e-07 3.702199931517786e-08  4.555503088090158e-23 9.999999999999972e-07 3.717675979983741e-08  4.5549334157806e-23 9.998966333562444e-07 3.71247046761056e-08  4.554231096770325e-23 9.999999999999972e-07 3.729133059251774e-08  4.5537121709714e-23 9.998965061650033e-07 3.723457743821731e-08  4.553032145879198e-23 9.999999999999972e-07 3.739932248824807e-08  4.552369236301881e-23 9.998917816873356e-07 3.735081376209414e-08  4.551717351997518e-23 9.999999999999972e-07 3.751774859296008e-08  4.551189438904171e-23 9.998962854806441e-07 3.746158425781668e-08  4.550512734643477e-23 9.999999999999972e-07 3.762625087829583e-08  4.549942656244761e-23 9.998942539932314e-07 3.757185296881055e-08  4.549272796116792e-23 9.999999999999972e-07 3.773793461203061e-08  4.548710292383113e-23 9.998927559881533e-07 3.768135643229463e-08  4.548093079525919e-23 9.999999999999972e-07 3.78441940360118e-08  4.547509640021857e-23 9.998950439533901e-07 3.779178954806637e-08  4.546852558735597e-23 9.999999999999972e-07 3.795593021539259e-08  4.546372052271262e-23 9.998959333148558e-07 3.789514370492572e-08  4.545609583137682e-23 9.999999999999972
[...]
<PointData  Tensors="f_45"> 
<DataArray  type="Float64"  Name="f_45"  NumberOfComponents="9" format="ascii">0.0000000000000000e+00 6.1787277573328408e-20 2.3492512001213612e-20 6.1787277573328408e-20 -8.7611230223105872e-04 4.9186272548725962e-06 2.3492512001213612e-20 4.9186272548725962e-06 1.5758067245864585e-03  0.0000000000000000e+00 6.3544209319273524e-20 2.5755530798224733e-20 6.3544209319273524e-20 -8.6513878603794979e-04 5.0644902774775332e-06 2.5755530798224733e-20 5.0644902774775332e-06 1.5560080806195089e-03  0.0000000000000000e+00 6.1540425735868501e-20 2.4434262514817455e-20 6.1540425735868501e-20 -8.7983347259543198e-04 1.8912385302181414e-05 2.4434262514817455e-20 1.8912385302181414e-05 1.5861034546222569e-03  0.0000000000000000e+00 6.3351937553166104e-20 2.6730629923107802e-20 6.3351937553166104e-20 -8.6857410818434028e-04 1.8787989606045897e-05 2.6730629923107802e-20 1.8787989606045897e-05 1.5658609169823859e-03  0.0000000000000000e+00 5.9918168084861426e-20 2.1116798725890191e-20 5.9918168084861426e-20 -8.8749828087490105e-04 4.6053474730176584e-06 2.1116798725890191e-20 4.6053474730176584e-06 1.5956923061684048e-03  0.0000000000000000e+00 5.9713227959967241e-20 2.2097563436019471e-20 5.9713227959967241e-20 -8.9130399198959602e-04 1.8929573195597785e-05 2.2097563436019471e-20 1.8929573195597785e-05 1.6067867093144212e-03  0.0000000000000000e+00 5.8239949734423024e-20 1.8941297980788488e-20 5.8239949734423024e-20 -8.9740421692834592e-04 5.1756297917512583e-06 1.8941297980788488e-20 5.1756297917512583e-06 1.6156970500868413e-03  0.0000000000000000e+00 5.7940549829270021e-20 1.9837018567926365e-20 5.7940549829270021e-20 -9.0232492658598917e-04 1.8814239904193875e-05 1.9837018567926365e-20 1.8814239904193875e-05 1.6263656031542965e-03  0.0000000000000000e+00 5.6346649873105723e-20 1.6511862008695543e-20 5.6346649873105723e-20 -9.0947529639408633e-04 4.5978647137396180e-06 1.6511862008695543e-20 4.5978647137396180e-06 1.6362707689536802e-03  0.0000000000000000e+00 5.6202274228984176e-20 1.7604554382049868e-20 5.6202274228984176e-20 -9.1285270113652321e-04 1.8856779023669490e-05 1.7604554382049868e-20 1.8856779023669490e-05 1.6458809660649242e-03  0.0000000000000000e+00 5.4576426298783490e-20 1.4260562752111677e-20 5.4576426298783490e-20 -9.2036036752886840e-04 4.9493785101834171e-06 1.4260562752111677e-20 4.9493785101834171e-06 1.6565251567317247e-03  0.0000000000000000e+00 5.4301215355392585e-20 1.5227350571519697e-20 5.4301215355392585e-20 -9.2514814869281076e-04 1.8794507232001328e-05 1.5227350571519697e-20 1.8794507232001328e-05 1.6666293346804255e-03  0.0000000000000000e+00 5.2708312840949084e-20 1.1874038879777789e-20 5.2708312840949084e-20 -9.3265013388059610e-04 4.5318739050653209e-06 1.1874038879777789e-20 4.5318739050653209e-06 1.6773187656721077e-03  0.0000000000000000e+00 5.2524531198131900e-20 1.2949580987127809e-20 5.2524531198131900e-20 -9.3608664187832906e-04 1.9010240392674939e-05 1.2949580987127809e-20 1.9010240392674939e-05 1.6870260467567154e-03  0.0000000000000000e+00 5.1014823851013032e-20 9.7033755153912287e-21 5.1014823851013032e-20 -9.4271363840619734e-04 4.7951352207932772e-06 9.7033755153912287e-21 4.7951352207932772e-06 1.6965048021698298e-03  0.0000000000000000e+00 5.0758167897252315e-20 1.0688157434729322e-20 5.0758167897252315e-20 -9.4698493632109455e-04 1.8939427671122782e-05 1.0688157434729322e-20 1.8939427671122782e-05 1.7067009284131120e-03  0.0000000000000000e+00 4.9293479954643012e-20 7.4797196658439753e-21 4.9293479954643012e-20 -9.5351524686697223e-04 4.7474712314350601e-06 7.4797196658439753e-21 4.7474712314350601e-06 1.7162599303566933e-03  0.0000000000000000e+00 4.9030734428049507e-20 8.4784969375197964e-21 4.9030734428049507e-20 -9.5764883627838992e-04 1.9052116648560355e-05 8.4784969375197964e-21 1.9052116648560355e-05 1.7262772361793257e-03  0.0000000000000000e+00 4.7433631535791003e-20 5.0685072202262045e-21 4.7433631535791003e-20 -9.6601227868265533e-04 4.4859752853024627e-06 5.0685072202262045e-21 4.4859752853024627e-06 1.7381664615780065e-03  0.0000000000000000e+00 4.7251539231069262e-20 6.2058107663805603e-21 4.7251539231069262e-20 -9.6932810715213090e-04 1.9100618177636376e-05 6.2058107663805603e-21 1.9100618177636376e-05 1.7469434531837476e-03  0.0000000000000000e+00 4.5703820049775851e-20 2.9230943401879072e-21 4.5703820049775851e-20 -9.7662726749291810e-04 4.8944179954311790e-06 2.9230943401879072e-21 4.8944179954311790e-06 1.7570851449382253e-03  0.0000000000000000e+00 4.5428842847113436e-20 3.8584838067296693e-21 4.5428842847113436e-20 -9.8090235193354922e-04 1.8940732995111607e-05 3.8584838067296693e-21 1.8940732995111607e-05 1.7676488318595091e-03  0.0000000000000000e+00 4.4029254287752767e-20 7.4653427641103692e-22 4.4029254287752767e-20 -9.8803146144983266e-04 4.7502841664864066e-06 7.4653427641103692e-22 4.7502841664864066e-06 1.7772441966418936e-03  0.0000000000000000e+00 4.3781906774939683e-20 1.7317659169192821e-21 4.3781906774939683e-20 -9.9090179529437135e-04 1.9013696617916955e-05 1.7317659169192821e-21 1.9013696617916955e-05 1.7864371833275251e-03  0.0000000000000000e+00 4.2400923308112230e-20 -1.3667003712755950e-21 4.2400923308112230e-20 -9.9802616257812149e-04 4.8783901021679722e-06 -1.3667003712755950e-21 4.8783901021679722e-06 1.7962303575551324e-03  0.0000000000000000e+00 4.2138636683987706e-20 -4.1546507321045627e-22 4.2138636683987706e-20 -1.0018039674161404e-03 1.8671638064219958e-05 -4.1546507321045627e-22 1.8671638064219958e-05 1.8057337908111619e-03  0.0000000000000000e+00 4.0672322061185527e-20 -3.6009334577853547e-21 4.0672322061185527e-20 -1.0087479297550511e-03 4.5906391496600396e-06 -3.6009334577853547e-21 4.5906391496600396e-06 1.8154852762852951e-03  0.0000000000000000e+00 4.0449671728022889e-20 -2.6053962759011915e-21 4.0449671728022889e-20 -1.0125638920992161e-03 1.8478570653371059e-05 -2.6053962759011915e-21 1.8478570653371059e-05 1.8251321862811580e-03  0.0000000000000000e+00 3.8900937041060780e-20 -5.8751952033699321e-21 3.8900937041060780e-20 -1.0205498673940209e-03 4.7794709841031800e-06 -5.8751952033699321e-21 4.7794709841031800e-06 1.8367238993285539e-03  0.0000000000000000e+00 3.8713946859085742e-20 -4.8423015451865544e-21 3.8713946859085742e-20 -1.0237896809743257e-03 1.8325458170897297e-05 -4.8423015451865544e-21 1.8325458170897297e-05 1.8450802136483733e-03  0.0000000000000000e+00 3.7277137649627681e-20 -7.9456435521439242e-21 3.7277137649627681e-20 -1.0307529884334018e-03 5.0060172374366275e-06 -7.9456435521439242e-21 5.0060172374366275e-06 1.8554262251801504e-03  0.0000000000000000e+00 3.7038692540058329e-20 -7.0371454555518723e-21 3.7038692540058329e-20 -1.0344094883856308e-03 1.7973509574510509e-05 -7.0371454555518723e-21 1.7973509574510509e-05 1.8643562178289805e-03  0.0000000000000000e+00 3.5575163660293954e-20 -1.0168442518752174e-20 3.5575163660293954e-20 -1.0417840703671403e-03 4.4804173302612270e-06 -1.0168442518752174e-20 4.4804173302612270e-06 1.8747884559970204e-03  0.0000000000000000e+00 3.5365796016842719e-20 -9.1927369176652263e-21 3.5365796016842719e-20 -1.0451552478580478e-03 1.7797626672165785e-05 -9.1927369176652263e-21 1.7797626672165785e-05 1.8834456704817856e-03  0.0000000000000000e+00 3.3934171811037027e-20 -1.2277086233494085e-20 3.3934171811037027e-20 -1.0526318832028917e-03 4.5785464132155961e-06 -1.2277086233494085e-20 4.5785464132155961e-06 1.8942569940705498e-03  0.0000000000000000e+00 3.3731152790869081e-20 -1.1289397596666563e-20 3.3731152790869081e-20 -1.0555602054366305e-03 1.8114841741511016e-05 -1.1289397596666563e-20 1.8114841741511016e-05 1.9028080247145591e-03  0.0000000000000000e+00 3.2307905051574371e-20 -1.4381662777470121e-20 3.2307905051574371e-20 -1.0637931841297745e-03 4.7538121409824469e-06 -1.4381662777470121e-20 4.7538121409824469e-06 1.9143852895205360e-03  0.0000000000000000e+00 3.2115768924155612e-20 -1.3379503837754716e-20 3.2115768924155612e-20 -1.0661247981437628e-03 1.8148513444265575e-05 -1.3379503837754716e-20 1.8148513444265575e-05 1.9219917988624650e-03  0.0000000000000000e+00 3.0782165964535573e-20 -1.6330857744234418e-20 3.0782165964535573e-20 -1.0731117994956971e-03 5.2295102029476783e-06 -1.6330857744234418e-20 5.2295102029476783e-06 1.9322836039762361e-03  0.0000000000000000e+00 3.0538074193581568e-20 -1.5476624052260913e-20 3.0538074193581568e-20 -1.0765579713835729e-03 1.7641543892926532e-05 -1.5476624052260913e-20 1.7641543892926532e-05 1.9407681706647326e-03  0.0000000000000000e+00 2.9108335989947312e-20 -1.8556001567998408e-20 2.9108335989947312e-20 -1.0847998604516700e-03 4.5447858138166264e-06 -1.8556001567998408e-20 4.5447858138166264e-06 1.9525338035346006e-03  0.0000000000000000e+00 2.8913189722573054e-20 -1.7570442931558332e-20 2.8913189722573054e-20 -1.0873612872362897e-03 1.7505968476834793e-05 -1.7570442931558332e-20 1.7505968476834793e-05 1.9597479069913114e-03  0.0000000000000000e+00 2.7434028119417304e-20 -2.0748647241284335e-20 2.7434028119417304e-20 -1.0964779603225409e-03 4.2008753502962113e-06 -2.0748647241284335e-20 4.2008753502962113e-06 1.9728616262236166e-03  0.0000000000000000e+00 2.7243745710148218e-20 -1.9700728136695732e-20 2.7243745710148218e-20 -1.0988942839866827e-03 1.7842218405896029e-05 -1.9700728136695732e-20 1.7842218405896029e-05 1.9802551804937204e-03  0.0000000000000000e+00 2.5841473478639638e-20 -2.2774711484408238e-20 2.5841473478639638e-20 -1.1066276863426071e-03 4.2740061821755593e-06 -2.2774711484408238e-20 4.2740061821755593e-06 1.9909670286418170e-03  0.0000000000000000e+00 2.5594488723205496e-20 -2.1842347556432967e-20 2.5594488723205496e-20 -1.1098313244823361e-03 1.7951981899640275e-05 -2.1842347556432967e-20 1.7951981899640275e-05 2.0002813610514088e-03  0.0000000000000000e+00 2.4364593410765442e-20 -2.4676725145490432e-20 2.4364593410765442e-20 -1.1157380475737772e-03 4.6445725171887567e-06 -2.4676725145490432e-20 4.6445725171887567e-06 2.0084770485113979e-03  0.0000000000000000e+00 2.4061235799498338e-20 -2.3874619566347734e-20 2.4061235799498338e-20 -1.1195142551901672e-03 1.7641690831844742e-05 -2.3874619566347734e-20 1.7641690831844742e-05 2.0183332383075575e-03  0.0000000000000000e+00 2.2646426701650424e-20 -2.6889914675025958e-20 2.2646426701650424e-20 -1.1275891867018545e-03 4.4526002931247235e-06 -2.6889914675025958e-20 4.4526002931247235e-06 2.0288617815501266e-03  0.0000000000000000e+00 2.2486511053431504e-20 -2.5929970106220153e-20 2.2486511053431504e-20 -1.1295032966074650e-03 1.7514021124419476e-05 -2.5929970106220153e-20 1.7514021124419476e-05 2.0367251248932122e-03  0.0000000000000000e+00 2.1054732679436342e-20 -2.8945033305670569e-20 2.1054732679436342e-20 -1.1377266301046986e-03 4.8966296635479257e-06 -2.8945033305670569e-20 4.8966296635479257e-06 2.0482355992680625e-03  0.0000000000000000e+00 2.0839467412848661e-20 -2.8048923347803419e-20 2.0839467412848661e-20 -1.1404346028610368e-03 1.7415407947697987e-05 -2.8048923347803419e-20 1.7415407947697987e-05 2.0559603724072360e-03  0.0000000000000000e+00 1.9406648047339871e-20 -3.1108055900726509e-20 1.9406648047339871e-20 -1.1486012242342197e-03 4.3807548528248557e-06 -3.1108055900726509e-20 4.3807548528248557e-06 2.0673547414479933e-03  0.0000000000000000e+00 1.9190528480261779e-20 -3.0145874974445268e-20 1.9190528480261779e-20 -1.1513382354951488e-03 1.7630657571361714e-05 -3.0145874974445268e-20 1.7630657571361714e-05 2.0753651834960825e-03  0.0000000000000000e+00 1.7850389142294628e-20 -3.3122942999769454e-20 1.7850389142294628e-20 -1.1587431884505874e-03 4.5349913394655113e-06 -3.3122942999769454e-20 4.5349913394655113e-06 2.0860670896902488e-03  0.0000000000000000e+00 1.7597379936424849e-20 -3.2179833558615583e-20 1.7597379936424849e-20 -1.1621175755370367e-03 1.7812421018515439e-05 -3.2179833558615583e-20 1.7812421018515439e-05 2.0944489781663509e-03  0.0000000000000000e+00 1.6350897298149145e-20 -3.5056062757917111e-20 1.6350897298149145e-20 -1.1690791620943524e-03 4.6796544478962141e-06 -3.5056062757917111e-20 4.6796544478962141e-06 2.1045039356004107e-03  0.0000000000000000e+00 1.6109214623992235e-20 -3.4126511291403518e-20 1.6109214623992235e-20 -1.1718330505421952e-03 1.7709644597675102e-05 -3.4126511291403518e-20 1.7709644597675102e-05 2.1122187257906471e-03  0.0000000000000000e+00 1.4769861226618064e-20 -3.7139948047560344e-20 1.4769861226618064e-20 -1.1798866717668318e-03 4.5438023576401235e-06 -3.7139948047560344e-20 4.5438023576401235e-06 2.1240982672967785e-03  0.0000000000000000e+00 1.4595360593234805e-20 -3.6110099748118514e-20 1.4595360593234805e-20 -1.1820366005883295e-03 1.7526547265160639e-05 -3.6110099748118514e-20 1.7526547265160639e-05 2.1305180643167083e-03  0.0000000000000000e+00 1.3187682790215840e-20 -3.9197466045293040e-20 1.3187682790215840e-20 -1.1904065545467958e-03 4.2945890780177757e-06 -3.9197466045293040e-20 4.2945890780177757e-06 2.1426826798043226e-03  0.0000000000000000e+00 1.2983023806838521e-20 -3.8183151799959896e-20 1.2983023806838521e-20 -1.1929217801549938e-03 1.7624373437644905e-05 -3.8183151799959896e-20 1.7624373437644905e-05 2.1498984046158282e-03  0.0000000000000000e+00 1.1718564245690079e-20 -4.1132073656945962e-20 1.1718564245690079e-20 -1.2004814673478637e-03 4.4385201512659064e-06 -4.1132073656945962e-20 4.4385201512659064e-06 2.1614309603109438e-03  0.0000000000000000e+00 1.1486065429952154e-20 -4.0197189293087854e-20 1.1486065429952154e-20 -1.2033259355197473e-03 1.7224130310591727e-05 -4.0197189293087854e-20 1.7224130310591727e-05 2.1688169429882236e-03  0.0000000000000000e+00 1.0262318724019644e-20 -4.3012587055318017e-20 1.0262318724019644e-20 -1.2102500599358613e-03 4.4872354622361605e-06 -4.3012587055318017e-20 4.4872354622361605e-06 2.1789399141236036e-03  0.0000000000000000e+00 1.0016705194187218e-20 -4.2119593556988374e-20 1.0016705194187218e-20 -1.2130804113125030e-03 1.6980050662392907e-05 -4.2119593556988374e-20 1.6980050662392907e-05 2.1862445751502507e-03  0.0000000000000000e+00 8.8301181460644546e-21 -4.4892605443669713e-20 8.8301181460644546e-21 -1.2202481909712925e-03 4.5575347961259678e-06 -4.4892605443669713e-20 4.5575347961259678e-06 2.1971458123223684e-03  0.0000000000000000e+00 8.6074739401269961e-21 -4.3950686890649239e-20 8.6074739401269961e-21 -1.2225858068670777e-03 1.7165383419552302e-05 -4.3950686890649239e-20 1.7165383419552302e-05 2.2037202278389180e-03  0.0000000000000000e+00 7.3720395949170339e-21 -4.6793743522081369e-20 7.3720395949170339e-21 -1.2304570868244659e-03 4.6062802033518106e-06 -4.6793743522081369e-20 4.6062802033518106e-06 2.2154336498790010e-03  0.0000000000000000e+00 7.1943236694601585e-21 -4.5815730385542494e-20 7.1943236694601585e-21 -1.2324357586475671e-03 1.7008819440879769e-05 -4.5815730385542494e-20 1.7008819440879769e-05 2.2213976362828922e-03  0.0000000000000000e+00 5.9399109671350426e-21 -4.8663933029610610e-20 5.9399109671350426e-21 -1.2401236569354814e-03 4.5826701764529132e-06 -4.8663933029610610e-20 4.5826701764529132e-06 2.2329444031947148e-03  0.0000000000000000e+00 5.7248435447260509e-21 -4.7754460386949823e-20 5.7248435447260509e-21 -1.2426439061923211e-03 1.6644241923776336e-05 -4.7754460386949823e-20 1.6644241923776336e-05 2.2393298830755809e-03  0.0000000000000000e+00 4.4704185480041876e-21 -5.0633855175249013e-20 4.4704185480041876e-21 -1.2505948026830679e-03 3.8817949604874668e-06 -5.0633855175249013e-20 3.8817949604874668e-06 2.2510287390335284e-03  0.0000000000000000e+00 4.2974294407066317e-21 -4.9614057233294599e-20 4.2974294407066317e-21 -1.2523640997037270e-03 1.6748306837527547e-05 -4.9614057233294599e-20 1.6748306837527547e-05 2.2570437185610113e-03  0.0000000000000000e+00 3.0429297450536555e-21 -5.2496403985539822e-20 3.0429297450536555e-21 -1.2604908504445442e-03 3.9712019196184400e-06 -5.2496403985539822e-20 3.9712019196184400e-06 2.2689409450566437e-03  0.0000000000000000e+00 2.8154068934271851e-21 -5.1533689586983678e-20 2.8154068934271851e-21 -1.2627495820804356e-03 1.6918676624176724e-05 -5.1533689586983678e-20 1.6918676624176724e-05 2.2756532179584268e-03  0.0000000000000000e+00 1.7127953049017661e-21 -5.4258983800177527e-20 1.7127953049017661e-21 -1.2692877912816127e-03 4.2116887584579644e-06 -5.4258983800177527e-20 4.2116887584579644e-06 2.2860091028828623e-03  0.0000000000000000e+00 1.4428292110975869e-21 -5.3355159874497359e-20 1.4428292110975869e-21 -1.2722380846354618e-03 1.6790789378342914e-05 -5.3355159874497359e-20 1.6790789378342914e-05 2.2929724762978830e-03  0.0000000000000000e+00 2.3945842035249178e-22 -5.6162441504903460e-20 2.3945842035249178e-22 -1.2795916683495719e-03 4.0941120467030680e-06 -5.6162441504903460e-20 4.0941120467030680e-06 2.3038261943892488e-03  0.0000000000000000e+00 2.0273573042382807e-23 -5.5226626745140113e-20 2.0273573042382807e-23 -1.2819644857216361e-03 1.6626389671235312e-05 -5.5226626745140113e-20 1.6626389671235312e-05 2.3104569438113396e-03  0.0000000000000000e+00 -1.2083593659774767e-21 -5.8069774601069813e-20 -1.2083593659774767e-21 -1.2900199727113872e-03 4.1686330579192706e-06 -5.8069774601069813e-20 4.1686330579192706e-06 2.3226814326829871e-03  0.0000000000000000e+00 -1.4243447789943613e-21 -5.7129953066302105e-20 -1.4243447789943613e-21 -1.2921747573482994e-03 1.6448679926253523e-05 -5.7129953066302105e-20 1.6448679926253523e-05 2.3285751441008513e-03  0.0000000000000000e+00 -2.6064960558608374e-21 -5.9894001960831413e-20 -2.6064960558608374e-21 -1.2993292752084540e-03 4.1203928765957517e-06 -5.9894001960831413e-20 4.1203928765957517e-06 2.3395700219476317e-03  0.0000000000000000e+00 -2.8141006354511897e-21 -5.8973687503024190e-20 -2.8141006354511897e-21 -1.3016041333153874e-03 1.6353217446828912e-05 -5.8973687503024190e-20 1.6353217446828912e-05 2.3459917461679507e-03  0.0000000000000000e+00 -4.0437719516708570e-21 -6.1784317993508570e-20 -4.0437719516708570e-21 -1.3097360116478139e-03 4.0597009919828184e-06 -6.1784317993508570e-20 4.0597009919828184e-06 2.3580166201852722e-03  0.0000000000000000e+00 -4.2353207366502317e-21 -6.0816585749132255e-20 -4.2353207366502317e-21 -1.3113801201377858e-03 1.6605101806503678e-05 -6.0816585749132255e-20 1.6605101806503678e-05 2.3638677798569871e-03  0.0000000000000000e+00 -5.3725176194306498e-21 -6.3545249172636552e-20 -5.3725176194306498e-21 -1.3191779129195049e-03 4.1827258527378656e-06 -6.3545249172636552e-20 4.1827258527378656e-06 2.3754901332088312e-03  0.0000000000000000e+00 -5.6435632404897827e-21 -6.2655273202785400e-20 -5.6435632404897827e-21 -1.3216425117804694e-03 1.6525761502488374e-05 -6.2655273202785400e-20 1.6525761502488374e-05 2.3817256977534998e-03  0.0000000000000000e+00 -6.7349239323323372e-21 -6.5324390765321762e-20 -6.7349239323323372e-21 -1.3285678148157308e-03 3.8350625561470255e-06 -6.5324390765321762e-20 3.8350625561470255e-06 2.3916919439145781e-03  0.0000000000000000e+00 -6.9721713758386318e-21 -6.4412679894905145e-20 -6.9721713758386318e-21 -1.3308810311167775e-03 1.6533689529967208e-05 -6.4412679894905145e-20 1.6533689529967208e-05 2.3987046212259363e-03  0.0000000000000000e+00 -8.1366618050699850e-21 -6.7125572098575364e-20 -8.1366618050699850e-21 -1.3385679978413923e-03 4.2675045083089172e-06 -6.7125572098575364e-20 4.2675045083089172e-06 2.4097527445247446e-03  0.0000000000000000e+00 -8.3292089588496815e-21 -6.6212544203638301e-20 -8.3292089588496815e-21 -1.3402466394487444e-03 1.6452097439559491e-05 -6.6212544203638301e-20 1.6452097439559491e-05 2.4158843024843593e-03  0.0000000000000000e+00 -9.4246374948773739e-21 -6.8834442704074382e-20 -9.4246374948773739e-21 -1.3476406824636806e-03 4.6978619030482207e-06 -6.8834442704074382e-20 4.6978619030482207e-06 2.4272683126777385e-03  0.0000000000000000e+00 -9.6725585660062894e-21 -6.7993652867893971e-20 -9.6725585660062894e-21 -1.3495625831958207e-03 1.6249249583859625e-05 -6.7993652867893971e-20 1.6249249583859625e-05 2.4326805166269175e-03  0.0000000000000000e+00 -1.0844065058635390e-20 -7.0733199880088692e-20 -1.0844