<?xml version="1.0"?>
<VTKFile type="UnstructuredGrid"  version="0.1"  >
<UnstructuredGrid>
<Piece  NumberOfPoints="10500" NumberOfCells="20574">
<Points>
<DataArray  type="Float64"  NumberOfComponents="3"  format="ascii">4.060954603629186e-23 9.664837448680977e-07 4.820547207463946e-08  4.058356772359489e-23 9.665231817210039e-07 4.84789007663092e-08  4.062311207542363e-23 9.667023823570343e-07 4.830191754601854e-08  4.117583390641118e-23 9.668078688549436e-07 4.342892837977771e-08  4.113559651713327e-23 9.666129750039054e-07 4.359646071145624e-08  4.114754043066672e-23 9.66827597057266e-07 4.370350155573971e-08  4.115565794404773e-23 9.665468133852883e-07 4.334960182328618e-08  4.163927399695612e-23 9.672351824282232e-07 3.96819447148838e-08  4.161509772263815e-23 9.673116841586142e-07 3.99762069652941e-08  4.16557598346807e-23 9.674435308043456e-07 3.974180186573969e-08  4.054103932234444e-23 9.668484844120507e-07 4.918726524140444e-08  4.058178095045444e-23 9.670547961638921e-07 4.90266090308965e-08  4.057509323459371e-23 9.668314134701187e-07 4.886346392643973e-08  4.06475262806997e-23 9.666684253096567e-07 4.804805688707327e-08  4.11161503072924e-23 9.666478220324139e-07 4.380646362675091e-08  4.11166036428938e-23 9.668071563701283e-07 4.396171468037431e-08  4.065662651683348e-23 9.668512378308705e-07 4.814890176816497e-08  4.107985336258048e-23 9.667247671054229e-07 4.421034251311858e-08  4.111699112202118e-23 9.669929141833387e-07 4.41439823918773e-08  4.068900310337415e-23 9.668964960704183e-07 4.790253764155255e-08  4.111519377667848e-23 9.663743021831922e-07 4.354155943936211e-08  4.118372960531693e-23 9.670429093819139e-07 4.359285077344857e-08  4.075380732462867e-23 9.667017591305324e-07 4.712409616827879e-08  4.076621937323378e-23 9.669336325554034e-07 4.7244171798204e-08  4.079116351514928e-23 9.669083622687312e-07 4.699422465506047e-08  4.107392913027877e-23 9.669155569712833e-07 4.445449311975183e-08  4.08233024155007e-23 9.671202606994716e-07 4.691664160650733e-08  4.079731955782977e-23 9.670861420683252e-07 4.711655575161057e-08  4.143960606260071e-23 9.669651437914338e-07 4.121035494761618e-08  4.142568227901581e-23 9.670513751986762e-07 4.142200064798763e-08  4.146958393821268e-23 9.672194130248751e-07 4.119460748218662e-08  4.112467029720198e-23 9.672545125638256e-07 4.433641291139866e-08  4.082390896642177e-23 9.673040983295787e-07 4.709501591161019e-08  4.073068229337575e-23 9.667717815627109e-07 4.740241036472447e-08  4.13865448749139e-23 9.669074456437993e-07 4.163058949017002e-08  4.141096745112249e-23 9.671488751776399e-07 4.165204001378574e-08  4.060012909578839e-23 9.667543845848878e-07 4.856093205091431e-08  4.055882787078781e-23 9.665737785238864e-07 4.875233435295812e-08  4.140226820108435e-23 9.668289095352257e-07 4.141043024983184e-08  4.16767993146711e-23 9.673998054154632e-07 3.950856968836756e-08  4.115234408102774e-23 9.670314553210368e-07 4.386409238355863e-08  4.168532100614743e-23 9.67024539474629e-07 3.905654717441856e-08  4.169055904008017e-23 9.671874324384344e-07 3.917226012288874e-08  4.171582569337832e-23 9.671810940533271e-07 3.893833995702458e-08  4.109693633017334e-23 9.6644759070464e-07 4.377929641936442e-08  4.097161321414532e-23 9.671745428272031e-07 4.563505881921698e-08  4.09730787745787e-23 9.670098268825398e-07 4.545714227971035e-08  4.094785242084848e-23 9.66977131627709e-07 4.565166581939823e-08  4.164622978020897e-23 9.675549826265895e-07 3.993909278751892e-08  4.144550059277587e-23 9.67255439889344e-07 4.144755783772561e-08  4.144077530919689e-23 9.673954304796315e-07 4.163010999874418e-08  4.121417556643835e-23 9.670710387642109e-07 4.334674731742283e-08  4.12121756360169e-23 9.669131790380407e-07 4.320690136305427e-08  4.1194428614993e-23 9.667045247863427e-07 4.315809806589658e-08  4.151000440389909e-23 9.67279791906186e-07 4.089091117509072e-08  4.155023801402529e-23 9.673336728271893e-07 4.058239995294958e-08  4.150805388862208e-23 9.67087906094001e-07 4.071659404265499e-08  4.150259680356262e-23 9.66887558977594e-07 4.056539997872864e-08  4.154058181220079e-23 9.670964324550183e-07 4.043213491465591e-08  4.100372010474515e-23 9.67228806795266e-07 4.540012962619705e-08  4.151022114966114e-23 9.674677145689423e-07 4.107688156558049e-08  4.067540423992472e-23 9.666811393555309e-07 4.780966859939224e-08  4.147407325398766e-23 9.670432557000769e-07 4.09780139956857e-08  4.147444916460007e-23 9.676244894958347e-07 4.155586188965554e-08  4.147656092885758e-23 9.674435849468939e-07 4.135593625926831e-08  4.060602034861554e-23 9.67056719858685e-07 4.881020363663736e-08  4.078379278232457e-23 9.671749293523293e-07 4.732718139786419e-08  4.116008460369802e-23 9.67258477781694e-07 4.402139441418882e-08  4.056530826229038e-23 9.671204961754646e-07 4.92406818270239e-08  4.174722945744329e-23 9.673391644155027e-07 3.881355035891817e-08  4.173757890370689e-23 9.671509130028896e-07 3.87122234067273e-08  4.161549365984639e-23 9.674999869776575e-07 4.016094349901042e-08  4.166310038796398e-23 9.671908773800201e-07 3.94230306153516e-08  4.071757384152297e-23 9.665846333802732e-07 4.733333262004594e-08  4.078825553452253e-23 9.667332166886016e-07 4.684527183586487e-08  4.082085842263331e-23 9.66946649713193e-07 4.676504415096248e-08  4.176654975434308e-23 9.673133611955305e-07 3.861372537510875e-08  4.176581206709226e-23 9.671666062753999e-07 3.847361495103393e-08  4.170432848606449e-23 9.669833829596848e-07 3.884418650053098e-08  4.068217688758191e-23 9.670490685064712e-07 4.811659516340198e-08  4.064363021089304e-23 9.669429945894192e-07 4.835771884389473e-08  4.123314742202637e-23 9.66889997017905e-07 4.29948222876035e-08  4.137234447652447e-23 9.669957702118047e-07 4.184681987596572e-08  4.128807594330202e-23 9.669297172919931e-07 4.25397904257934e-08  4.131606573186203e-23 9.669179770642802e-07 4.227594059542241e-08  4.127946345743162e-23 9.667500866452259e-07 4.243773415533952e-08  4.200780187397507e-23 9.669596206496023e-07 3.608697891702666e-08  4.202905465386593e-23 9.669133046878183e-07 3.584923493204844e-08  4.199364101834488e-23 9.667468083613813e-07 3.600171627708436e-08  4.180185798961583e-23 9.672332235588094e-07 3.821555942795277e-08  4.175745407768369e-23 9.669656906116072e-07 3.834798136321328e-08  4.187775385012511e-23 9.667981541501574e-07 3.709688088108365e-08  4.18926503099786e-23 9.670225377268258e-07 3.718708907566132e-08  4.191271647343993e-23 9.669588679785608e-07 3.6942679394822e-08  4.193238269143062e-23 9.672220907796207e-07 3.702876465185247e-08  4.068846440878433e-23 9.665779249274248e-07 4.758881862806702e-08  4.12440300846039e-23 9.670990555471482e-07 4.310585850658872e-08  4.132128987432998e-23 9.671282081909192e-07 4.243911682991755e-08  4.082225380833039e-23 9.667856126496693e-07 4.659143857042796e-08  4.093939027097729e-23 9.668073271351263e-07 4.555808159682882e-08  4.064113689707934e-23 9.664643755382223e-07 4.790155756702241e-08  4.15885831809329e-23 9.674742811187217e-07 4.03776256856888e-08  4.157997263015605e-23 9.672938788026174e-07 4.027478031612474e-08  4.121902419765509e-23 9.666613758448732e-07 4.289341181060309e-08  4.071014600839846e-23 9.668243274472567e-07 4.763993066001294e-08  4.108448426838987e-23 9.665609154793217e-07 4.400477939566227e-08  4.088874889087111e-23 9.670928040021175e-07 4.629969546497153e-08  4.085656889894234e-23 9.668495580583572e-07 4.634630112052953e-08  4.085396668666196e-23 9.670087823245236e-07 4.652896403120852e-08  4.13993767467601e-23 9.672779123965859e-07 4.188547701642649e-08  4.185731269703955e-23 9.668514258953063e-07 3.733427016507084e-08  4.147255059319684e-23 9.668625978121061e-07 4.081107101685524e-08  4.061805029129426e-23 9.669751855970575e-07 4.862031328427949e-08  4.157197919508939e-23 9.670941433100304e-07 4.014704328591304e-08  4.172492460957528e-23 9.673605972338543e-07 3.903588738636347e-08  4.172933028818893e-23 9.669650127145199e-07 3.860062004190366e-08  4.119221739578699e-23 9.672636838690477e-07 4.373717404058591e-08  4.085310924753603e-23 9.671681989562245e-07 4.669610378796541e-08  4.071696095215955e-23 9.671394324433319e-07 4.789365209972208e-08  4.16514354827666e-23 9.66955627944708e-07 3.929284930543995e-08  4.194656063501658e-23 9.671022531247104e-07 3.678122343404102e-08  4.187102119457336e-23 9.670736316257627e-07 3.743300072675703e-08  4.096445593185277e-23 9.668306584515997e-07 4.535564151134501e-08  4.100112474425009e-23 9.670124654452111e-07 4.520716520525902e-08  4.13449878974253e-23 9.671386478005562e-07 4.22361036235915e-08  4.103892682536792e-23 9.666101903759112e-07 4.446439925908695e-08  4.193191846452337e-23 9.66896493211918e-07 3.670734846840282e-08  4.189816144664103e-23 9.66746091735303e-07 3.686100317809993e-08  4.092088628973618e-23 9.66835490250381e-07 4.575291375812826e-08  4.092888516744457e-23 9.67026746469914e-07 4.587212249232747e-08  4.08526500052934e-23 9.673261212933455e-07 4.685816261147201e-08  4.089114215546547e-23 9.669309931639473e-07 4.611632801573064e-08  4.167386845613007e-23 9.676308198595203e-07 3.976598295929118e-08  4.141597496498236e-23 9.667674133396874e-07 4.122547450072646e-08  4.196562636589899e-23 9.670499253413337e-07 3.655716681366921e-08  4.195174094461698e-23 9.668445183311858e-07 3.647682855974431e-08  4.135629364881308e-23 9.670610376122717e-07 4.205666027983273e-08  4.162512554514216e-23 9.670117681867347e-07 3.958596839802978e-08  4.126006463078496e-23 9.669025741345082e-07 4.276495074153661e-08  4.170075001518446e-23 9.673794721181828e-07 3.927250765927268e-08  4.083860688463791e-23 9.675065901585612e-07 4.716512066259007e-08  4.085935263986963e-23 9.675062252454363e-07 4.697789459840307e-08  4.197274292453497e-23 9.667912609159967e-07 3.623440212668986e-08  4.193758748542527e-23 9.666351898508859e-07 3.639498310652801e-08  4.15993131866589e-23 9.670627134762419e-07 3.986941074363054e-08  4.102715892037227e-23 9.667506945828744e-07 4.471089933115678e-08  4.105001480739781e-23 9.669884711419454e-07 4.47428
[...]
<PointData  Tensors="f_58"> 
<DataArray  type="Float64"  Name="f_58"  NumberOfComponents="9" format="ascii">-1.1180934892852516e-02 9.7073962787483108e-19 -4.0816005997606546e-19 9.7073962787483108e-19 6.3418570713877024e-03 1.2937508560556622e-04 -4.0816005997606546e-19 1.2937508560556622e-04 -3.6049282043345114e-03  -1.1181371623539105e-02 9.7117751653674776e-19 -4.0840242874596955e-19 9.7117751653674776e-19 6.3457706948127530e-03 1.2180156430797702e-04 -4.0840242874596955e-19 1.2180156430797702e-04 -3.6126079032611108e-03  -1.1180970020341633e-02 9.7146927212262820e-19 -4.0719911724329773e-19 9.7146927212262820e-19 6.3548085820761668e-03 1.3150492342739041e-04 -4.0719911724329773e-19 1.3150492342739041e-04 -3.6178569974408105e-03  -1.1181024381689050e-02 9.6781761925325079e-19 -3.9873718680573181e-19 9.6781761925325079e-19 6.3197645251402441e-03 2.9159595145476319e-04 -3.9873718680573181e-19 2.9159595145476319e-04 -3.4809585242145465e-03  -1.1181033633687342e-02 9.6740538743779427e-19 -4.0050727742293879e-19 9.6740538743779427e-19 6.3090617364329081e-03 2.7647145061668039e-04 -4.0050727742293879e-19 2.7647145061668039e-04 -3.4760622316060944e-03  -1.1181026232454542e-02 9.6807641237053226e-19 -3.9891663337782099e-19 9.6807641237053226e-19 6.3239777998375683e-03 2.8360827106770520e-04 -3.9891663337782099e-19 2.8360827106770520e-04 -3.4932562368108324e-03  -1.1181060312261270e-02 9.6695787129340924e-19 -4.0083644979202075e-19 9.6695787129340924e-19 6.3018322650879883e-03 2.8136277423578579e-04 -4.0083644979202075e-19 2.8136277423578579e-04 -3.4612353620995288e-03  -1.1180999138716343e-02 9.6647252686773130e-19 -3.9057937994391780e-19 9.6647252686773130e-19 6.3053837205803414e-03 4.4316224412457031e-04 -3.9057937994391780e-19 4.4316224412457031e-04 -3.3345836624103873e-03  -1.1181036150908871e-02 9.6689106218337102e-19 -3.9020935476013090e-19 9.6689106218337102e-19 6.3142997733255006e-03 4.3740306215127740e-04 -3.9020935476013090e-19 4.3740306215127740e-04 -3.3542182226366222e-03  -1.1180950542058924e-02 9.6734678105139635e-19 -3.8832215930802094e-19 9.6734678105139635e-19 6.3234468380635707e-03 4.5550429123507774e-04 -3.8832215930802094e-19 4.5550429123507774e-04 -3.3527788011518973e-03  -1.1181003978411609e-02 9.7256021163972920e-19 -4.0836393909447106e-19 9.7256021163972920e-19 6.3682827802621425e-03 1.0611504174010162e-04 -4.0836393909447106e-19 1.0611504174010162e-04 -3.6415426909104406e-03  -1.1180553417822873e-02 9.7313516800426676e-19 -4.0690119546822452e-19 9.7313516800426676e-19 6.3803974097410895e-03 1.1511069805895038e-04 -4.0690119546822452e-19 1.1511069805895038e-04 -3.6507578401011116e-03  -1.1181355164398702e-02 9.7237957087666048e-19 -4.0768676785544156e-19 9.7237957087666048e-19 6.3657000076943263e-03 1.1545747191302832e-04 -4.0768676785544156e-19 1.1545747191302832e-04 -3.6364303972231896e-03  -1.1181006680318035e-02 9.7115914753229779e-19 -4.0672371347245800e-19 9.7115914753229779e-19 6.3511387852910484e-03 1.3949052568560860e-04 -4.0672371347245800e-19 1.3949052568560860e-04 -3.6124401370318335e-03  -1.1180997188189372e-02 9.6773975540239769e-19 -4.0037961149709714e-19 9.6773975540239769e-19 6.3150087256268733e-03 2.7173095471116822e-04 -4.0037961149709714e-19 2.7173095471116822e-04 -3.4876937087167555e-03  -1.1181051154711786e-02 9.6834022863661735e-19 -3.9935897027456891e-19 9.6834022863661735e-19 6.3251742631101372e-03 2.7358681432452083e-04 -3.9935897027456891e-19 2.7358681432452083e-04 -3.5018245335993983e-03  -1.1181023309360391e-02 9.7169853876516507e-19 -4.0606542516693197e-19 9.7169853876516507e-19 6.3620560853250262e-03 1.4006095286959346e-04 -4.0606542516693197e-19 1.4006095286959346e-04 -3.6243917000309362e-03  -1.1181064129002801e-02 9.6820664787542225e-19 -4.0027422670686754e-19 9.6820664787542225e-19 6.3224759659108827e-03 2.6231536754785982e-04 -4.0027422670686754e-19 2.6231536754785982e-04 -3.5076136614902976e-03  -1.1180950523351569e-02 9.6902034843887794e-19 -3.9812797212992361e-19 9.6902034843887794e-19 6.3390781238771366e-03 2.7579940436044191e-04 -3.9812797212992361e-19 2.7579940436044191e-04 -3.5210256935649278e-03  -1.1181049551538454e-02 9.7185675061953866e-19 -4.0529325146040624e-19 9.7185675061953866e-19 6.3647316990552393e-03 1.4822982912790286e-04 -4.0529325146040624e-19 1.4822982912790286e-04 -3.6218421990741002e-03  -1.1181105006293704e-02 9.6673787825511071e-19 -4.0228846612500743e-19 9.6673787825511071e-19 6.2939186987544188e-03 2.6692680212200522e-04 -4.0228846612500743e-19 2.6692680212200522e-04 -3.4600889694544434e-03  -1.1180997116103489e-02 9.6861034597607967e-19 -3.9705262598712591e-19 9.6861034597607967e-19 6.3356214149551107e-03 2.9707675760695158e-04 -3.9705262598712591e-19 2.9707675760695158e-04 -3.5018651253577713e-03  -1.1180981007756585e-02 9.7055748778745790e-19 -4.0488502837181547e-19 9.7055748778745790e-19 6.3464691956993747e-03 1.6857571067550593e-04 -4.0488502837181547e-19 1.6857571067550593e-04 -3.5935101768819976e-03  -1.1181007087860090e-02 9.7136716219532242e-19 -4.0374038016025065e-19 9.7136716219532242e-19 6.3619973654172792e-03 1.7152003912797022e-04 -4.0374038016025065e-19 1.7152003912797022e-04 -3.6092362014940736e-03  -1.1180972781606444e-02 9.7102642267529424e-19 -4.0346224326403869e-19 9.7102642267529424e-19 6.3577849554040900e-03 1.7860829272928110e-04 -4.0346224326403869e-19 1.7860829272928110e-04 -3.6019273581628214e-03  -1.1181018892508797e-02 9.6899546273425214e-19 -3.9914077936030776e-19 9.6899546273425214e-19 6.3366408798254436e-03 2.6365410823214085e-04 -3.9914077936030776e-19 2.6365410823214085e-04 -3.5252189680204235e-03  -1.1181099450919265e-02 9.7170295838080304e-19 -4.0198097612758656e-19 9.7170295838080304e-19 6.3713532390201385e-03 1.8701775729795515e-04 -4.0198097612758656e-19 1.8701775729795515e-04 -3.6134268039562508e-03  -1.1180987133464691e-02 9.7164871639499746e-19 -4.0255912443921624e-19 9.7164871639499746e-19 6.3696656087400541e-03 1.8050834018850572e-04 -4.0255912443921624e-19 1.8050834018850572e-04 -3.6150955156526348e-03  -1.1180956967210796e-02 9.6650357418784725e-19 -3.9492682510739310e-19 9.6650357418784725e-19 6.3039333233384067e-03 3.7475546769154635e-04 -3.9492682510739310e-19 3.7475546769154635e-04 -3.3909865665516323e-03  -1.1181098967257615e-02 9.6691174652172803e-19 -3.9429057037057496e-19 9.6691174652172803e-19 6.3111098500885096e-03 3.7083278172388368e-04 -3.9429057037057496e-19 3.7083278172388368e-04 -3.4104012326254276e-03  -1.1181015565228694e-02 9.6737061606258616e-19 -3.9245756624841000e-19 9.6737061606258616e-19 6.3218476543880336e-03 3.8930909116529174e-04 -3.9245756624841000e-19 3.8930909116529174e-04 -3.4087738219401504e-03  -1.1180992458437360e-02 9.6986036474121543e-19 -3.9662113891191240e-19 9.6986036474121543e-19 6.3561219670654080e-03 2.8001680695239690e-04 -3.9662113891191240e-19 2.8001680695239690e-04 -3.5417309073916461e-03  -1.1181025896874809e-02 9.7244408486701205e-19 -4.0122820609415257e-19 9.7244408486701205e-19 6.3850330558221455e-03 1.8637426769471235e-04 -4.0122820609415257e-19 1.8637426769471235e-04 -3.6284562433735327e-03  -1.1181050478445963e-02 9.7100305045659058e-19 -4.0510705537824053e-19 9.7100305045659058e-19 6.3536733718377513e-03 1.6148464455661990e-04 -4.0510705537824053e-19 1.6148464455661990e-04 -3.6030092001825853e-03  -1.1181004918892030e-02 9.6650902776974723e-19 -3.9597273571381328e-19 9.6650902776974723e-19 6.3037655100407139e-03 3.5648860652794291e-04 -3.9597273571381328e-19 3.5648860652794291e-04 -3.4085086854756664e-03  -1.1181023682416710e-02 9.6737831437321440e-19 -3.9370978979194238e-19 9.6737831437321440e-19 6.3213686706324879e-03 3.6883203133308487e-04 -3.9370978979194238e-19 3.6883203133308487e-04 -3.4265684578528234e-03  -1.1181076294010685e-02 9.7186993004599085e-19 -4.0733724362383886e-19 9.7186993004599085e-19 6.3593274340117932e-03 1.2415527114697638e-04 -4.0733724362383886e-19 1.2415527114697638e-04 -3.6275818261140209e-03  -1.1181104803096045e-02 9.7152602136202129e-19 -4.0873264442905707e-19 9.7152602136202129e-19 6.3504519526574694e-03 1.1412128880681765e-04 -4.0873264442905707e-19 1.1412128880681765e-04 -3.6198893295088337e-03  -1.1181066381717442e-02 9.6617213140894812e-19 -3.9644934270270183e-19 9.6617213140894812e-19 6.2955082942575047e-03 3.5866155124286757e-04 -3.9644934270270183e-19 3.5866155124286757e-04 -3.3935117029802635e-03  -1.1181026260910339e-02 9.6701575185251364e-19 -3.8863822965504104e-19 9.6701575185251364e-19 6.3164050504219450e-03 4.6047858696031461e-04 -3.8863822965504104e-19 4.6047858696031461e-04 -3.3362093344777664e-03  -1.1181047857150073e-02 9.6881918737114043e-19 -3.9751888695308451e-19 9.6881918737114043e-19 6.3382876148619103e-03 2.8739095224565776e-04 -3.9751888695308451e-19 2.8739095224565776e-04 -3.5118428551150129e-03  -1.1181013310294046e-02 9.6567397852648218e-19 -3.9214509173246229e-19 9.6567397852648218e-19 6.2853792923049491e-03 4.5141605058935655e-04 -3.9214509173246229e-19 4.5141605058935655e-04 -3.2842799762955550e-03  -1.1180994474959854e-02 9.6609987684930458e-19 -3.9078169683704911e-19 9.6609987684930458e-19 6.2958390927571580e-03 4.5661949347184142e-04 -3.9078169683704911e-19 4.5661949347184142e-04 -3.3011836571718183e-03  -1.1181015436919331e-02 9.6591617952232852e-19 -3.9042117718451321e-19 9.6591617952232852e-19 6.2926468315162741e-03 4.6580734487207734e-04 -3.9042117718451321e-19 4.6580734487207734e-04 -3.2894613585980588e-03  -1.1180909381642679e-02 9.6708942215798187e-19 -4.0188717224340482e-19 9.6708942215798187e-19 6.3008061143430757e-03 2.6320361616287479e-04 -4.0188717224340482e-19 2.6320361616287479e-04 -3.4749277235998719e-03  -1.1181048491555946e-02 9.7064283506707667e-19 -3.9926678727629022e-19 9.7064283506707667e-19 6.3636410111774866e-03 2.3392909834415142e-04 -3.9926678727629022e-19 2.3392909834415142e-04 -3.5797819387344662e-03  -1.1181073637220148e-02 9.7005205695946080e-19 -4.0020086622185519e-19 9.7005205695946080e-19 6.3530942972225939e-03 2.3318580003162053e-04 -4.0020086622185519e-19 2.3318580003162053e-04 -3.5645877546297716e-03  -1.1180946119521099e-02 9.6999351657788856e-19 -4.0067401448519004e-19 9.6999351657788856e-19 6.3498450049064604e-03 2.2541144443726852e-04 -4.0067401448519004e-19 2.2541144443726852e-04 -3.5691632264952325e-03  -1.1180975147167881e-02 9.6787458060080661e-19 -3.8756560392015874e-19 9.6787458060080661e-19 6.3330906889713743e-03 4.5315187323674870e-04 -3.8756560392015874e-19 4.5315187323674870e-04 -3.3712975971101227e-03  -1.1181010461545729e-02 9.6773197187915160e-19 -3.9242453900392149e-19 9.6773197187915160e-19 6.3290819209635349e-03 3.8237398032299171e-04 -3.9242453900392149e-19 3.8237398032299171e-04 -3.4239534610968226e-03  -1.1180971292598190e-02 9.6835527525373817e-19 -3.9125577220076486e-19 9.6835527525373817e-19 6.3396533384837087e-03 3.8317503547845522e-04 -3.9125577220076486e-19 3.8317503547845522e-04 -3.4426706259830936e-03  -1.1181060911449941e-02 9.6852458975587626e-19 -3.9660956504944935e-19 9.6852458975587626e-19 6.3352003119621098e-03 3.0534933698217541e-04 -3.9660956504944935e-19 3.0534933698217541e-04 -3.4945527773288573e-03  -1.1180997331379767e-02 9.6805495936302347e-19 -3.9753900927829942e-19 9.6805495936302347e-19 6.3249543588928354e-03 3.0372486528640899e-04 -3.9753900927829942e-19 3.0372486528640899e-04 -3.4791453378291066e-03  -1.1180996243243934e-02 9.6728991654254539e-19 -3.9922610180249715e-19 9.6728991654254539e-19 6.3101125610329923e-03 2.9521882017944550e-04 -3.9922610180249715e-19 2.9521882017944550e-04 -3.4647032831043372e-03  -1.1180941814393382e-02 9.6731379902625453e-19 -3.9155242908629786e-19 9.6731379902625453e-19 6.3223769365505934e-03 4.0327005472630894e-04 -3.9155242908629786e-19 4.0327005472630894e-04 -3.3985627015895958e-03  -1.1180997833818368e-02 9.6728802044424935e-19 -3.9070811512800199e-19 9.6728802044424935e-19 6.3227256484236424e-03 4.1716816891657955e-04 -3.9070811512800199e-19 4.1716816891657955e-04 -3.3869014176916836e-03  -1.1180959687688933e-02 9.6664725193584980e-19 -3.9314496465708504e-19 9.6664725193584980e-19 6.3081158872007543e-03 3.9858643339840520e-04 -3.9314496465708504e-19 3.9858643339840520e-04 -3.3770235159824601e-03  -1.1180969601721789e-02 9.6587279650084282e-19 -3.9513072931187574e-19 9.6587279650084282e-19 6.2914995962291718e-03 3.9009307927316675e-04 -3.9513072931187574e-19 3.9009307927316675e-04 -3.3555927543258476e-03  -1.1180993203785371e-02 9.6645884040315037e-19 -3.9294755428919585e-19 9.6645884040315037e-19 6.3050900105223679e-03 4.0804637240337665e-04 -3.9294755428919585e-19 4.0804637240337665e-04 -3.3620951429612152e-03  -1.1181032598546423e-02 9.7077595838911801e-19 -3.9837012062214956e-19 9.7077595838911801e-19 6.3653383703794119e-03 2.4294331379943017e-04 -3.9837012062214956e-19 2.4294331379943017e-04 -3.5771738548683926e-03  -1.1180986555540251e-02 9.6799789947448859e-19 -3.9006957342172254e-19 9.6799789947448859e-19 6.3371807154066319e-03 4.0713544599438854e-04 -3.9006957342172254e-19 4.0713544599438854e-04 -3.4201142749796811e-03  -1.1180998901557987e-02 9.7116383635375683e-19 -4.0637181857732033e-19 9.7116383635375683e-19 6.3515185502355078e-03 1.4510114037785614e-04 -4.0637181857732033e-19 1.4510114037785614e-04 -3.6078378236484685e-03  -1.1181000735504884e-02 9.6661076986086335e-19 -3.9390685432727453e-19 9.6661076986086335e-19 6.3075525921632101e-03 3.8667974097080974e-04 -3.9390685432727453e-19 3.8667974097080974e-04 -3.3872879199374549e-03  -1.1181023440658227e-02 9.6897413679215177e-19 -3.8907395136246561e-19 9.6897413679215177e-19 6.3552224726567078e-03 3.9870465191224619e-04 -3.8907395136246561e-19 3.9870465191224619e-04 -3.4554405950896765e-03  -1.1181009669525266e-02 9.6816884820173769e-19 -3.9042395528728131e-19 9.6816884820173769e-19 6.3395442888555045e-03 3.9675024772819914e-04 -3.9042395528728131e-19 3.9675024772819914e-04 -3.4338309582824956e-03  -1.1180846511364846e-02 9.7309977774509332e-19 -4.0635589014407290e-19 9.7309977774509332e-19 6.3793980757802593e-03 1.2081136581435021e-04 -4.0635589014407290e-19 1.2081136581435021e-04 -3.6494042393626367e-03  -1.1181042159736877e-02 9.7207406668895643e-19 -4.0254800954804248e-19 9.7207406668895643e-19 6.3769432521134338e-03 1.7493573181244496e-04 -4.0254800954804248e-19 1.7493573181244496e-04 -3.6261662266995564e-03  -1.1181014802277121e-02 9.6968782579820654e-19 -3.9594183353712928e-19 9.6968782579820654e-19 6.3536142735750025e-03 2.9088056383018022e-04 -3.9594183353712928e-19 2.9088056383018022e-04 -3.5328858508352550e-03  -1.1181651539432479e-02 9.7346886889249119e-19 -4.0711801245249873e-19 9.7346886889249119e-19 6.3845749852019882e-03 1.0881636625897783e-04 -4.0711801245249873e-19 1.0881636625897783e-04 -3.6598030740394049e-03  -1.1180988466978434e-02 9.6642936001257170e-19 -3.8845847723731740e-19 9.6642936001257170e-19 6.3036973345744407e-03 4.8190257889704991e-04 -3.8845847723731740e-19 4.8190257889704991e-04 -3.2943796748733361e-03  -1.1180962377987826e-02 9.6582966729584024e-19 -3.9052354692159349e-19 9.6582966729584024e-19 6.2896222419264675e-03 4.7233658691104186e-04 -3.9052354692159349e-19 4.7233658691104186e-04 -3.2729865035546436e-03  -1.1181028223756741e-02 9.6763406869280269e-19 -3.8843632765350823e-19 9.6763406869280269e-19 6.3301301716246700e-03 4.4349802778002038e-04 -3.8843632765350823e-19 4.4349802778002038e-04 -3.3763980368884568e-03  -1.1181014632887464e-02 9.6625939704639087e-19 -3.9072080760807142e-19 9.6625939704639087e-19 6.2999523338342035e-03 4.4999220088645550e-04 -3.9072080760807142e-19 4.4999220088645550e-04 -3.3168150217135011e-03  -1.1181166578671766e-02 9.7038151747827573e-19 -4.0592378723289399e-19 9.7038151747827573e-19 6.3402751698625852e-03 1.5832615777269519e-04 -4.0592378723289399e-19 1.5832615777269519e-04 -3.5926437818784292e-03  -1.1181156542630530e-02 9.7048201170255613e-19 -4.0420927615479256e-19 9.7048201170255613e-19 6.3464362697387656e-03 1.7796016203004282e-04 -4.0420927615479256e-19 1.7796016203004282e-04 -3.5885923439642540e-03  -1.1180959539566968e-02 9.7101546260095653e-19 -4.0271172450178313e-19 9.7101546260095653e-19 6.3584190823281631e-03 1.8736328006941849e-04 -4.0271172450178313e-19 1.8736328006941849e-04 -3.5987426095468867e-03  -1.1180980205510298e-02 9.6616271762414234e-19 -3.8867981815208639e-19 9.6616271762414234e-19 6.2978074771993381e-03 4.8707584206405640e-04 -3.8867981815208639e-19 4.8707584206405640e-04 -3.2789428470216130e-03  -1.1180971356500704e-02 9.6560614872924512e-19 -3.9028542547502805e-19 9.6560614872924512e-19 6.2872574075908500e-03 4.8228363144371905e-04 -3.9028542547502805e-19 4.8228363144371905e-04 -3.2590617043383799e-03  -1.1180988584298781e-02 9.6528200012397356e-19 -3.9265530814929705e-19 9.6528200012397356e-19 6.2796377806258246e-03 4.5597548527004324e-04 -3.9265530814929705e-19 4.5597548527004324e-04 -3.2672401565499074e-03  -1.1181028655354355e-02 9.7245942119093604e-19 -4.0488566706581527e-19 9.7245942119093604e-19 6.3752974268684887e-03 1.4558617970186053e-04 -4.0488566706581527e-19 1.4558617970186053e-04 -3.6341390732368105e-03  -1.1181058215544621e-02 9.7220760627168835e-19 -4.0598852951533744e-19 9.7220760627168835e-19 6.3692006899090416e-03 1.3511314925147586e-04 -4.0598852951533744e-19 1.3511314925147586e-04 -3.6337164081993441e-03  -1.1181098033928702e-02 9.6768710387646045e-19 -3.9757136600056754e-19 9.6768710387646045e-19 6.3204187589144881e-03 3.1021502602242529e-04 -3.9757136600056754e-19 3.1021502602242529e-04 -3.4678746299165518e-03  -1.1181015086141680e-02 9.6701826187397853e-19 -3.9552059227260671e-19 9.6701826187397853e-19 6.3124629155541746e-03 3.5331156115528899e-04 -3.9552059227260671e-19 3.5331156115528899e-04 -3.4225520622776402e-03  -1.1181134608537429e-02 9.6743001842855856e-19 -3.9690778009761730e-19 9.6743001842855856e-19 6.3176168323714650e-03 3.2594033697305990e-04 -3.9690778009761730e-19 3.2594033697305990e-04 -3.4502805713027139e-03  -1.1181059027344316e-02 9.6724512167045546e-19 -3.9656474306776061e-19 9.6724512167045546e-19 6.3138475414211050e-03 3.3355309645044496e-04 -3.9656474306776061e-19 3.3355309645044496e-04 -3.4406450086579845e-03  -1.1181036409140161e-02 9.6690422366806977e-19 -3.9817282437170345e-19 9.6690422366806977e-19 6.3047695876125099e-03 3.2004472789417729e-04 -3.9817282437170345e-19 3.2004472789417729e-04 -3.4357110105678206e-03  -1.1180962894006800e-02 9.6469872494754853e-19 -3.9080264292178235e-19 9.6469872494754853e-19 6.2505941991803813e-03 5.4967591193538041e-04 -3.9080264292178235e-19 5.4967591193538041e-04 -3.0946263423803485e-03  -1.1181262425244838e-02 9.6459696917240722e-19 -3.9122412856402687e-19 9.6459696917240722e-19 6.2458457551381567e-03 5.5432052010385730e-04 -3.9122412856402687e-19 5.5432052010385730e-04 -3.0754280032315477e-03  -1.1181271389511704e-02 9.6394358373583623e-19 -3.9368086767677534e-19 9.6394358373583623e-19 6.2341072407225886e-03 5.3392778224838479e-04 -3.9368086767677534e-19 5.3392778224838479e-04 -3.0720065612911979e-03  -1.1181032169419602e-02 9.6578052899312944e-19 -3.8924436240986861e-19 9.6578052899312944e-19 6.2897638029359654e-03 4.9610293657442912e-04 -3.8924436240986861e-19 4.9610293657442912e-04 -3.2496638846238081e-03  -1.1180955105177007e-02 9.6502816636848622e-19 -3.9225831928155309e-19 9.6502816636848622e-19 6.2735432944774090e-03 4.7258027345209349e-04 -3.9225831928155309e-19 4.7258027345209349e-04 -3.2395933138956645e-03  -1.1181519876884790e-02 9.6411944292353041e-19 -3.9366985155562628e-19 9.6411944292353041e-19 6.2471310500850112e-03 5.0113979891880552e-04 -3.9366985155562628e-19 5.0113979891880552e-04 -3.1481337633607652e-03  -1.1180874132876047e-02 9.6494389977845511e-19 -3.9071740575602684e-19 9.6494389977845511e-19 6.2648889834567142e-03 5.1642036503569857e-04 -3.9071740575602684e-19 5.1642036503569857e-04 -3.1723735173494246e-03  -1.1181278480213471e-02 9.6466186922437172e-19 -3.9144520458970901e-19 9.6466186922437172e-19 6.2579121188471526e-03 5.2041833188857958e-04 -3.9144520458970901e-19 5.2041833188