<?xml version="1.0"?>
<VTKFile type="UnstructuredGrid"  version="0.1"  >
<UnstructuredGrid>
<Piece  NumberOfPoints="10337" NumberOfCells="20334">
<Points>
<DataArray  type="Float64"  NumberOfComponents="3"  format="ascii">4.266870628863954e-23 9.368255394837965e-07 1.076858095315143e-38  4.255737654160246e-23 9.358227702692536e-07 1.074386078345417e-38  4.253982230365388e-23 9.361704645100298e-07 5.058087597440809e-10  4.244604679456538e-23 9.348200010547108e-07 1.071914061375692e-38  4.243370819008227e-23 9.353966135597705e-07 6.877487741644349e-10  4.23347170475283e-23 9.338172318401678e-07 1.069442044405967e-38  4.231344058267209e-23 9.344210140361049e-07 7.954235543334338e-10  4.222233913778863e-23 9.328050216153114e-07 1.066946753548923e-38  4.218740878250211e-23 9.33389599667248e-07 8.992027220412039e-10  4.209845029595685e-23 9.316891301314935e-07 1.064195868655007e-38  4.194529207711292e-23 9.30309603536865e-07 1.060795073035585e-38  4.189400296004868e-23 9.310007887590823e-07 1.153156519214667e-09  4.178309367274735e-23 9.288486501899432e-07 1.057193544973902e-38  4.160093429801639e-23 9.272079044056223e-07 1.05314879433435e-38  4.151305078569901e-23 9.279489705851017e-07 1.532650486128394e-09  4.137848505246354e-23 9.252042597268611e-07 1.048209428849884e-38  4.111141271703894e-23 9.227986859862627e-07 1.042279231729308e-38  4.101798038982794e-23 9.239784609940182e-07 2.021338595779183e-09  4.076884858623862e-23 9.19713142602617e-07 1.034672780020804e-38  4.039561915939896e-23 9.163513907873394e-07 1.026385421957903e-38  4.02777116776899e-23 9.181822829708746e-07 2.892908364913336e-09  3.99895915201965e-23 9.126942189381109e-07 1.017369797284368e-38  3.956088282775113e-23 9.088327543230159e-07 1.007850552060172e-38  3.933231347028477e-23 9.105506866269332e-07 3.776702050144866e-09  3.899318338853762e-23 9.037193723572151e-07 9.952450922905391e-39  3.838071201791071e-23 8.982027206841542e-07 9.816454959386647e-39  3.813234074809629e-23 9.008024824763769e-07 4.836891308594207e-09  3.771196817277948e-23 8.921792116206756e-07 9.667963996498437e-39  3.697265866024709e-23 8.85520103530371e-07 9.503804307870865e-39  3.661543199706156e-23 8.886034861439794e-07 6.300994348026829e-09  3.610193180878267e-23 8.776772932827776e-07 9.310464108139831e-39  3.500818654818602e-23 8.678257117866549e-07 9.067603873862022e-39  3.455700841509291e-23 8.723742535651642e-07 8.6123931226609e-09  3.382103199522436e-23 8.571327741819563e-07 8.804002610164699e-39  3.246195912325012e-23 8.448913340223713e-07 8.502227811242851e-39  3.192918080100813e-23 8.509608422707948e-07 1.08683487554637e-08  3.076422620188422e-23 8.295995153182951e-07 8.125255375449941e-39  2.88015052883377e-23 8.119208969685343e-07 7.689443785623406e-39  2.828058724736602e-23 8.21502013455181e-07 1.427312907706792e-08  2.654386321087383e-23 7.915858649309298e-07 7.188146542470815e-39  2.414095610052634e-23 7.699424017973961e-07 6.654593982482158e-39  2.340060257142016e-23 7.822837844488227e-07 1.900989440703666e-08  2.130154354782941e-23 7.44367247168842e-07 6.024117743999393e-39  1.82216075409841e-23 7.16625649863335e-07 5.340234570165048e-39  1.734770845545298e-23 7.336694624532543e-07 2.491519578183399e-08  1.484094386692859e-23 6.861753385378524e-07 4.589576440274988e-39  1.071420705810335e-23 6.490049978288894e-07 3.673256795929802e-39  9.633301251144317e-24 6.713813960392141e-07 3.211233218921136e-08  5.45802611172134e-24 6.016615287258535e-07 2.506150174275932e-39  -1.084612401337949e-25 5.515230679986988e-07 1.270141689413075e-39  -8.707277512381565e-25 5.819835316646647e-07 3.732635001669912e-08  -5.674948591988918e-24 5.013846072715442e-07 3.413320455022038e-41  -1.124143594384405e-23 4.512461465443895e-07 -1.201875280312637e-39  -1.428060417686656e-23 4.76254613060352e-07 5.238286035947538e-08  -1.68079232956992e-23 4.011076858172346e-07 -2.437883765175496e-39  -2.237441064755432e-23 3.5096922509008e-07 -3.673892250038351e-39  -2.553236474521664e-23 3.749971847780727e-07 5.247228148296293e-08  -2.794089799940946e-23 3.008307643629253e-07 -4.909900734901208e-39  -3.350738535126458e-23 2.506923036357707e-07 -6.145909219764063e-39  -3.664656390329734e-23 2.748916120406475e-07 5.247451511924524e-08  -3.907387270311956e-23 2.005538429086173e-07 -7.381917704626886e-39  -4.464036005497468e-23 1.504153821814627e-07 -8.61792618948974e-39  -4.778686398367663e-23 1.745505344629843e-07 5.247634012316538e-08  -5.020684740682983e-23 1.002769214543079e-07 -9.8539346743526e-39  -5.577333475868495e-23 5.013846072715324e-08 -1.108994315921545e-38  -5.9402427548126e-23 6.994109522973705e-08 5.249059637102312e-08  -6.13398221105399e-23 0 0  -6.716849298982199e-23 3.262652233999262e-55 5.249999999999989e-08  -7.299716386910404e-23 0 1.05e-07  -6.746492278537107e-23 4.982999776644719e-08 1.049999999999998e-07  2.301319865828242e-23 8.647844658040879e-07 1.049999999999998e-07  2.414672788881825e-23 8.749943894445973e-07 1.049999999999998e-07  2.440660507046355e-23 8.694357510350442e-07 9.710059603360698e-08  2.174830728891433e-23 8.533913372045873e-07 1.049999999999998e-07  2.325202461219459e-23 8.582062176531378e-07 9.627059889495925e-08  2.028877407411511e-23 8.40245030719978e-07 1.049999999999998e-07  2.202024905577085e-23 8.45849830949573e-07 9.500906006522254e-08  1.864363768732887e-23 8.254269594829697e-07 1.049999999999998e-07  2.06389696175899e-23 8.335116966134043e-07 9.511238485522643e-08  1.440545333322354e-23 7.872527885272172e-07 1.049999999999998e-07  1.655375951321309e-23 8.066030103505746e-07 1.049999999999998e-07  1.731588513788412e-23 7.977708312100094e-07 8.93032035008787e-08  1.211117411660559e-23 7.665877584771283e-07 1.049999999999998e-07  1.516220012244611e-23 7.770031403815303e-07 8.793418273839978e-08  9.585646368321459e-24 7.438398268249558e-07 1.049999999999998e-07  1.303076609637387e-23 7.558813475868939e-07 8.601064091493081e-08  6.778241607689252e-24 7.185529727572331e-07 1.049999999999998e-07  1.067010858923015e-23 7.320008269930742e-07 8.339303286015473e-08  3.677316885097165e-24 6.906223259068937e-07 1.049999999999998e-07  8.17689880735259e-24 7.04985791486407e-07 7.883483464272807e-08  2.785391326931076e-25 6.600088574684096e-07 1.049999999999998e-07  5.41158962437934e-24 6.718762023909559e-07 7.063293635928206e-08  -3.508204956959836e-24 6.259008989261927e-07 1.049999999999998e-07  1.049124314996824e-24 6.394102838642812e-07 7.746061211611092e-08  -1.244987481592944e-23 5.453614968363417e-07 1.049999999999998e-07  -7.718737097427694e-24 5.879757969685076e-07 1.049999999999998e-07  -6.319058621231398e-24 5.689669783475274e-07 7.338399845134726e-08  -1.767475303177289e-23 4.982999776644842e-07 1.049999999999998e-07  -8.258223596699605e-24 5.299876371306113e-07 5.187110255628821e-08  -2.320699411550596e-23 4.484699798980362e-07 1.049999999999998e-07  -3.427147628297224e-23 3.488099843651389e-07 1.049999999999998e-07  -2.873923519923911e-23 3.986399821315875e-07 1.049999999999998e-07  -4.533595845043855e-23 2.491499888322414e-07 1.049999999999998e-07  -3.98037173667054e-23 2.989799865986901e-07 1.049999999999998e-07  -5.640044061790477e-23 1.494899932993446e-07 1.049999999999998e-07  -5.086819953417161e-23 1.993199910657934e-07 1.049999999999998e-07  -6.193268170163791e-23 9.965999553289597e-08 1.049999999999998e-07  4.278003603567662e-23 9.378283086983394e-07 1.079330112284868e-38  4.267692622956003e-23 9.373032843638962e-07 4.037062343666848e-10  4.204740290755034e-23 9.322714431237017e-07 1.042106991019771e-09  4.172270841821059e-23 9.296305035425131e-07 1.325755372230805e-09  4.128479140646464e-23 9.260986721906598e-07 1.73832980221398e-09  4.067616162320122e-23 9.212838580905511e-07 2.405565432328679e-09  3.980911594998762e-23 9.145503363826315e-07 3.481696866005063e-09  3.876977458426227e-23 9.059704379800886e-07 4.263353238244997e-09  3.741888159491969e-23 8.950220119478546e-07 5.482689532852314e-09  3.570801059645097e-23 8.813879813207502e-07 7.258814888113389e-09  3.333661453398422e-23 8.623797162862985e-07 9.610186700207916e-09  3.017802084256949e-23 8.369073725563352e-07 1.258792571358492e-08  2.598615304467193e-23 8.028549342754766e-07 1.629247593792199e-08  2.056596204163552e-23 7.596397836984098e-07 2.189806572395858e-08  1.391793694264509e-23 7.048031199738485e-07 2.694148871652329e-08  4.264258783284386e-24 6.316737355366074e-07 4.07647070017853e-08  -1.994953372876012e-23 4.252704779885625e-07 5.245990332268068e-08  -3.109205482508871e-23 3.249218329876e-07 5.247416603650484e-08  -4.220619282978408e-23 2.248154315643077e-07 5.247502016619324e-08  -5.344585786778842e-23 1.235829632430052e-07 5.248045439874182e-08  1.984322899185667e-23 8.193387065989165e-07 8.810678921181008e-08  -2.030150401978741e-24 6.06471521918849e-07 7.225749110656384e-08  4.258256090720953e-23 9.36749751752053e-07 7.001408836722355e-10  4.271474904878898e-23 9.377939037488884e-07 5.536479501874679e-10  4.147269785153755e-23 9.289636226654234e-07 2.910769484955791e-09  4.230616541134089e-23 9.350070103849449e-07 1.446948820965862e-09  4.244240913940854e-23 9.36028284444171e-07 1.241048474277867e-09  4.186847192332344e-23 9.317647852884064e-07 2.147116183503219e-09  4.063021804160457e-23 9.229197938831257e-07 4.455324218820771e-09  4.026796126332e-23 9.202996875749948e-07 5.098136894079507e-09  3.969303929777232e-23 9.168822942307761e-07 6.859180249476177e-09  3.861728240464894e-23 9.083742475698097e-07 8.040690274533085e-09  3.799426739588423e-23 9.03593746215345e-07 8.871809242706369e-09  3.647025715381923e-23 8.924370986759654e-07 1.144222561987226e-08  3.436003632148092e-23 8.775736264100145e-07 1.558593286229785e-08  3.310351409276506e-23 8.685946210116428e-07 1.792467354598126e-08  2.993970194304621e-23 8.455279956681596e-07 2.335513463958617e-08  2.809475861440492e-23 8.314887714434289e-07 2.59336825896326e-08  2.575428939073966e-23 8.149772490471825e-07 3.050323284052817e-08  2.020515014169492e-23 7.746655359368081e-07 4.017372263860348e-08  1
[...]
<PointData  Tensors="f_71"> 
<DataArray  type="Float64"  Name="f_71"  NumberOfComponents="9" format="ascii">-1.5945129356761318e+08 -9.6070870684811267e-08 -5.4848114238075569e-08 -9.6070870684811267e-08 -2.9328589033622617e+08 -3.0363354255206068e+06 -5.4848114238075569e-08 -3.0363354255206068e+06 7.2443772897506095e+06  -1.6411394032391402e+08 -8.8311943171012162e-08 -5.1384572665252162e-08 -8.8311943171012162e-08 -3.0204176557068318e+08 -7.2976276997617250e+06 -5.1384572665252162e-08 -7.2976276997617250e+06 5.1707941996484818e+06  -1.3608041037512428e+08 -8.8466780231345573e-08 -4.9598620615484776e-08 -8.8466780231345573e-08 -2.5040759946946067e+08 5.3572224819287914e+05 -4.9598620615484776e-08 5.3572224819287914e+05 3.0215638021426704e+06  -1.6202229869260305e+08 -8.2634136328127092e-08 -4.7726997686238026e-08 -8.2634136328127092e-08 -2.9801889235245228e+08 3.7211307927338395e+05 -4.7726997686238026e-08 3.7211307927338395e+05 1.2651598544414483e+06  -1.2520284113280801e+08 -8.1202951755491963e-08 -4.5658615089976424e-08 -8.1202951755491963e-08 -2.3032457663033435e+08 -2.0296830931328714e+06 -4.5658615089976424e-08 -2.0296830931328714e+06 1.9406835793167478e+06  -1.6050709201285034e+08 -7.7112400535350516e-08 -4.4588412355840766e-08 -7.7112400535350516e-08 -2.9504104899199820e+08 7.1700231262142514e+05 -4.4588412355840766e-08 7.1700231262142514e+05 -3.9809096334204059e+06  -1.2726519911697815e+08 -7.5397709217052392e-08 -4.3052041283401578e-08 -7.5397709217052392e-08 -2.3412312997065654e+08 -4.5907088109047171e+06 -4.3052041283401578e-08 -4.5907088109047171e+06 1.8602771351521648e+06  -1.5841381014101902e+08 -7.2092916529076230e-08 -4.2053858396995814e-08 -7.2092916529076230e-08 -2.9113061669856787e+08 -1.2362862346767536e+06 -4.2053858396995814e-08 -1.2362862346767536e+06 -5.6232906508561010e+06  -1.2579143515202826e+08 -7.0521366653348399e-08 -4.0504621926372339e-08 -7.0521366653348399e-08 -2.3142656624116644e+08 -3.0642957890147157e+06 -4.0504621926372339e-08 -3.0642957890147157e+06 2.2736846608394762e+06  -1.5582394678565061e+08 -6.7750517691692085e-08 -3.9834050171428312e-08 -6.7750517691692085e-08 -2.8643883652456826e+08 3.3854811264955169e+04 -3.9834050171428312e-08 3.3854811264955169e+04 -3.6946017335369955e+06  -1.5375926748109609e+08 -6.3277854601582498e-08 -3.7695089027313530e-08 -6.3277854601582498e-08 -2.8269077225190246e+08 -1.0405637390836758e+06 -3.7695089027313530e-08 -1.0405637390836758e+06 -2.3668172723071068e+06  -1.2400539086168836e+08 -6.1687966131524151e-08 -3.5964633129641639e-08 -6.1687966131524151e-08 -2.2813426917070520e+08 -1.7121342050249181e+06 -3.5964633129641639e-08 -1.7121342050249181e+06 2.0643587348834639e+06  -1.4962046665834275e+08 -5.8500985693769331e-08 -3.5021600205626776e-08 -5.8500985693769331e-08 -2.7494418677742767e+08 -2.3096628516735812e+06 -3.5021600205626776e-08 -2.3096628516735812e+06 -6.0176295974980053e+06  -1.4643721798213351e+08 -5.4290198915648964e-08 -3.2914117584629076e-08 -5.4290198915648964e-08 -2.6916556880286771e+08 -1.9950841499527900e+06 -3.2914117584629076e-08 -1.9950841499527900e+06 -3.9697506705717710e+06  -1.1817864130847394e+08 -5.3164922333934059e-08 -3.1238930533960785e-08 -5.3164922333934059e-08 -2.1737822992757139e+08 1.2857441893373907e+06 -3.1238930533960785e-08 1.2857441893373907e+06 9.7993372510522511e+05  -1.4268481406787616e+08 -5.0097925986351089e-08 -3.0793164096104698e-08 -5.0097925986351089e-08 -2.6233498974978662e+08 -1.8332009981879976e+06 -3.0793164096104698e-08 -1.8332009981879976e+06 -2.0633645690947152e+06  -1.3658285893300000e+08 -4.5372341154477307e-08 -2.8177210370434731e-08 -4.5372341154477307e-08 -2.5115563959587350e+08 -4.2386014333562407e+05 -2.8177210370434731e-08 -4.2386014333562407e+05 -9.0695802566704829e+05  -1.1061235916712323e+08 -4.4605157968350447e-08 -2.6525833211862708e-08 -4.4605157968350447e-08 -2.0345054573640487e+08 3.4264482227019826e+06 -2.6525833211862708e-08 3.4264482227019826e+06 6.4021204273099010e+05  -1.3041941638924555e+08 -4.0680610716289356e-08 -2.5457996016174611e-08 -4.0680610716289356e-08 -2.3979763701012832e+08 1.0893519555914165e+06 -2.5457996016174611e-08 1.0893519555914165e+06 -1.5247478950946373e+06  -1.2110102314205921e+08 -3.5635611842340458e-08 -2.2537761657544900e-08 -3.5635611842340458e-08 -2.2260135151281351e+08 1.3895205807309784e+05 -2.2537761657544900e-08 1.3895205807309784e+05 -3.1172002281242092e+06  -9.9109832790989012e+07 -3.5343268459411414e-08 -2.1421383556460254e-08 -3.5343268459411414e-08 -1.8233800708076590e+08 5.1064008468155451e+06 -2.1421383556460254e-08 5.1064008468155451e+06 1.7692137382560903e+06  -1.1396190091658439e+08 -3.1190947142284016e-08 -1.9903852449186482e-08 -3.1190947142284016e-08 -2.0941241596593386e+08 6.7931921229333035e+05 -1.9903852449186482e-08 6.7931921229333035e+05 -4.7243008550300309e+06  -1.0446952462212457e+08 -2.6987998253862583e-08 -1.7428808201454629e-08 -2.6987998253862583e-08 -1.9202144418459892e+08 2.2704329908948005e+06 -1.7428808201454629e-08 2.2704329908948005e+06 -2.9268304200043539e+06  -8.2847130804002464e+07 -2.6921116071909571e-08 -1.6052226654753705e-08 -2.6921116071909571e-08 -1.5240673975404650e+08 1.2178505227983521e+07 -1.6052226654753705e-08 1.2178505227983521e+07 1.1583356070369661e+06  -9.3095096349700555e+07 -2.2539987855873511e-08 -1.4764900691964046e-08 -2.2539987855873511e-08 -1.7113788341326022e+08 2.9116878087823093e+06 -1.4764900691964046e-08 2.9116878087823093e+06 -1.9765978047686054e+06  -8.0210796037985176e+07 -1.8161507155094054e-08 -1.1930316301948586e-08 -1.8161507155094054e-08 -1.4741436295425260e+08 4.0579440352377063e+06 -1.1930316301948586e-08 4.0579440352377063e+06 -2.7352735611434067e+06  -6.4420318652910188e+07 -1.8702310229544847e-08 -1.1047462307383401e-08 -1.8702310229544847e-08 -1.1855658965798648e+08 1.5538980652107062e+07 -1.1047462307383401e-08 1.5538980652107062e+07 2.2013869748239880e+06  -6.6618761150438130e+07 -1.4029470251698610e-08 -9.2540229790331258e-09 -1.4029470251698610e-08 -1.2240188646255913e+08 4.5366265045283847e+06 -9.2540229790331258e-09 4.5366265045283847e+06 -3.1520313629649868e+06  -5.2723497242532551e+07 -1.0408195811981338e-08 -6.8736818250354628e-09 -1.0408195811981338e-08 -9.6876214324138269e+07 5.2779082884831037e+06 -6.8736818250354628e-09 5.2779082884831037e+06 -2.3654837272355026e+06  -4.1991703035048157e+07 -1.1274879751233089e-08 -6.1935698199813452e-09 -1.1274879751233089e-08 -7.7278539604414552e+07 1.8233288108417287e+07 -6.1935698199813452e-09 1.8233288108417287e+07 1.3992664543101925e+06  -3.7647937446248546e+07 -6.9028649634653057e-09 -4.4906271773367598e-09 -6.9028649634653057e-09 -6.9169848903838620e+07 5.9139835401777728e+06 -4.4906271773367598e-09 5.9139835401777728e+06 -1.8499008007720360e+06  -2.3867517915321566e+07 -3.9661192866654314e-09 -2.4990085417990249e-09 -3.9661192866654314e-09 -4.3843840604229018e+07 5.6962624831067426e+06 -2.4990085417990249e-09 5.6962624831067426e+06 -1.3757638551851520e+06  -1.9991135343849003e+07 -4.9966452732964098e-09 -2.0960998203301698e-09 -4.9966452732964098e-09 -3.6727669978169151e+07 1.6942616376065906e+07 -2.0960998203301698e-09 1.6942616376065906e+07 -1.0274279605466080e+06  -1.3006726371905344e+07 -1.7359299173682925e-09 -1.0218608236190541e-09 -1.7359299173682925e-09 -2.3875616730393354e+07 4.5828500482000066e+06 -1.0218608236190541e-09 4.5828500482000066e+06 -1.2180749961586650e+06  -4.7767575095523950e+06 -2.5230649216110335e-10 -5.6428720875442915e-11 -2.5230649216110335e-10 -8.7555715224124957e+06 3.2533649940578472e+06 -5.6428720875442915e-11 3.2533649940578472e+06 -7.9414134225985082e+05  -5.0199915027328031e+06 -9.2441431128541312e-10 1.5755524253319290e-10 -9.2441431128541312e-10 -9.1343141050470024e+06 9.7065324245378692e+06 1.5755524253319290e-10 9.7065324245378692e+06 -2.6499778084244784e+06  -1.3281844895605656e+05 4.3832310766417155e-10 3.7237871572401446e-10 4.3832310766417155e-10 -2.1818703587468600e+05 1.7267187896639111e+06 3.7237871572401446e-10 1.7267187896639111e+06 -7.0563512827348150e+05  1.6142148616103355e+06 5.8110303224963053e-10 3.9825879908243714e-10 5.8110303224963053e-10 2.9823315488130054e+06 2.9082011829475366e+05 3.9825879908243714e-10 2.9082011829475366e+05 -3.6888830101038172e+05  1.6377253077466355e+05 3.8837531950036269e-10 4.5506770786258411e-10 3.8837531950036269e-10 3.7097064574630669e+05 2.0375857206717031e+06 4.5506770786258411e-10 2.0375857206717031e+06 -1.8879985480370189e+06  1.3192323528931055e+06 3.7441500853066283e-10 2.2802288865645249e-10 3.7441500853066283e-10 2.4296844064270081e+06 -2.7489616658890632e+05 2.2802288865645249e-10 -2.7489616658890632e+05 -9.4372143713194862e+04  6.8466137111302430e+05 1.6728176310364525e-10 8.1457914525378654e-11 1.6728176310364525e-10 1.2566611895601507e+06 -3.8137758636567940e+05 8.1457914525378654e-11 -3.8137758636567940e+05 6.7580382855848729e+04  1.3350479664814199e+05 1.6402026253485589e-10 5.1265988048479936e-11 1.6402026253485589e-10 2.4635522646290105e+05 -5.3806651642540051e+05 5.1265988048479936e-11 -5.3806651642540051e+05 -2.2374549831706994e+04  2.0220155243235442e+05 4.2085269687952631e-11 8.2829634617003462e-12 4.2085269687952631e-11 3.6840605625702353e+05 -2.2366626580693081e+05 8.2829634617003462e-12 -2.2366626580693081e+05 9.3680447001875466e+04  1.1678322460615560e+04 -2.7979462865028129e-12 -8.9850072461337444e-12 -2.7979462865028129e-12 1.9574734034441830e+04 -7.1792982378672430e+04 -8.9850072461337444e-12 -7.1792982378672430e+04 5.1486175414063982e+04  -1.6616547009268932e+04 -2.2304586290042423e-13 -2.4024214540019616e-11 -2.2304586290042423e-13 -3.7309702753587619e+04 -1.7363278329225132e+05 -2.4024214540019616e-11 -1.7363278329225132e+05 1.8264569674626132e+05  -1.4494525999233383e+04 -6.0564637089905271e-12 -4.0056943380261197e-12 -6.0564637089905271e-12 -2.6967195815622006e+04 1.7843419120621807e+03 -4.0056943380261197e-12 1.7843419120621807e+03 8.3974055367105484e+03  -6.1823502902639457e+03 -1.6788860180534693e-12 -5.1707891173516261e-13 -1.6788860180534693e-12 -1.1299579902037658e+04 6.6825101682845243e+03 -5.1707891173516261e-13 6.6825101682845243e+03 -1.9038658856584668e+03  3.9472680673099158e+03 -6.2809944832461535e-13 -6.8437005737331993e-13 -6.2809944832461535e-13 6.9154957471849484e+03 5.2290242812012571e+02 -6.8437005737331993e-13 5.2290242812012571e+02 9.3054864032434325e+03  -1.0740735631053308e+03 -1.5519795965835863e-13 2.3286275647381608e-13 -1.5519795965835863e-13 -1.8856399830011555e+03 2.9931422352970449e+03 2.3286275647381608e-13 2.9931422352970449e+03 -2.4266802453352943e+03  5.4817028575040274e+02 1.7110841565784065e-13 1.6784565898003800e-13 1.7110841565784065e-13 1.0196063034331618e+03 5.9733678082781898e+02 1.6784565898003800e-13 5.9733678082781898e+02 -3.1029220973325226e+02  5.9003800233347454e+02 2.8696340365779536e-13 2.4803611881946778e-13 2.8696340365779536e-13 1.1181683846948256e+03 3.7744312110554637e+02 2.4803611881946778e-13 3.7744312110554637e+02 -8.9374261169395641e+02  5.9877147129022319e+02 1.1797336081773885e-13 6.7181567208796587e-14 1.1797336081773885e-13 1.0970018317991971e+03 -1.3872920003110784e+02 6.7181567208796587e-14 -1.3872920003110784e+02 1.1356421599276355e+02  4.4456471837484042e+02 2.6088159224247523e-14 2.6325419103271797e-15 2.6088159224247523e-14 8.0996945952573208e+02 -2.3939856734792767e+02 2.6325419103271797e-15 -2.3939856734792767e+02 2.0640309674077531e+02  -1.1268543063531024e+02 -1.7107736440134892e-14 -2.0651197240858982e-14 -1.7107736440134892e-14 -2.0611438807345840e+02 -1.3623153183007079e+02 -2.0651197240858982e-14 -1.3623153183007079e+02 -3.0441863060962834e+01  -4.3106798924245142e+00 -5.7527913893608556e-14 -5.7037940743901369e-14 -5.7527913893608556e-14 -1.1368881275989885e+01 -3.3218370373220455e+02 -5.7037940743901369e-14 -3.3218370373220455e+02 9.3108467731742479e+01  -3.8989198749692486e+02 -8.2687094721686602e-14 -6.3729434427278354e-14 -8.2687094721686602e-14 -7.1507224239053426e+02 -1.4130593681995907e+02 -6.3729434427278354e-14 -1.4130593681995907e+02 -5.3493843597769043e+01  -9.9058883277570047e+01 -6.5888945582679301e-14 -5.3510825683643440e-14 -6.5888945582679301e-14 -1.8150948665366130e+02 -2.6223699279787041e+02 -5.3510825683643440e-14 -2.6223699279787041e+02 -1.8113227272408388e+01  -3.5096940232593710e+02 -4.6542272964987031e-14 -3.4030347503783420e-14 -4.6542272964987031e-14 -6.4336107887658989e+02 4.9993160622206911e+00 -3.4030347503783420e-14 4.9993160622206911e+00 -5.6977359256547444e+01  -1.5824221190049650e+02 -9.2286818520111153e-15 -4.5438119921107760e-15 -9.2286818520111153e-15 -2.9262189626399515e+02 1.3821653860028889e+02 -4.5438119921107760e-15 1.3821653860028889e+02 4.3267275978388135e+01  -2.8655252572840059e+01 -3.8226824808173361e-16 3.9942343404376863e-15 -3.8226824808173361e-16 -5.4366401707763529e+01 1.2016793096511235e+02 3.9942343404376863e-15 1.2016793096511235e+02 4.5094337479812339e+01  -1.0190858006741852e+01 1.7790649048126721e-14 1.0466585733581330e-14 1.7790649048126721e-14 -2.0388122872054346e+01 7.1615754182541082e+01 1.0466585733581330e-14 7.1615754182541082e+01 4.4540692662395919e+01  7.4041703207833038e+01 2.1979937618876921e-14 1.1205746001103684e-14 2.1979937618876921e-14 1.3494133767220393e+02 -1.0650539342142384e+01 1.1205746001103684e-14 -1.0650539342142384e+01 3.3241725219555533e+01  -1.6895931466681159e+01 1.5264500678904023e-14 7.3213684259174653e-15 1.5264500678904023e-14 -3.2366614127065624e+01 3.9303748728534067e+01 7.3213684259174653e-15 3.9303748728534067e+01 3.4995021887376502e+01  3.4805240017951903e+01 9.5529759349942926e-15 -8.6554420388963547e-16 9.5529759349942926e-15 6.1910339306168190e+01 -5.1706018408902708e+01 -8.6554420388963547e-16 -5.1706018408902708e+01 5.6817739057499594e+01  -2.7109198118517996e+00 1.7978753386519791e-15 1.1091813186830543e-15 1.7978753386519791e-15 -4.5696622319834912e+00 -5.3002289927318671e+00 1.1091813186830543e-15 -5.3002289927318671e+00 -1.1255495880769423e+01  -6.5407692952723862e+00 9.9345134813544063e-16 -3.2262818998936439e-15 9.9345134813544063e-16 -1.3214083431625927e+01 -2.1168189978649057e+01 -3.2262818998936439e-15 -2.1168189978649057e+01 3.2062506363464024e+01  2.3521171182704524e+01 -4.7854198236672621e-16 2.2587900610395476e-15 -4.7854198236672621e-16 4.2321659779092407e+01 4.4916672822724578e+01 2.2587900610395476e-15 4.4916672822724578e+01 2.5327563473931455e+01  -1.5415093008649672e+01 -1.4174851566481570e-15 1.4733655926116951e-15 -1.4174851566481570e-15 -2.7962479149697504e+01 3.1895479801075833e+01 1.4733655926116951e-15 3.1895479801075833e+01 -1.0481458476587177e+01  -5.8596188431747031e+01 -7.6884699117405641e-15 2.9634984646459971e-15 -7.6884699117405641e-15 -1.0492268124186887e+02 6.5536162799327997e+01 2.9634984646459971e-15 6.5536162799327997e+01 -7.6881637845291166e+01  -1.0884636132191112e+01 -1.3444802076158638e-15 -5.9537427762282394e-16 -1.3444802076158638e-15 -2.0784884160472938e+01 2.6671196655851951e+01 -5.9537427762282394e-16 2.6671196655851951e+01 2.0752628162834675e+01  -2.0590326976392116e+07 -1.8059296876467320e-09 -2.0007958408525155e-09 -1.8059296876467320e-09 -3.7813091813388295e+07 -4.7516319162008492e+06 -2.0007958408525155e-09 -4.7516319162008492e+06 -1.4752268668832211e+06  -3.3403045746025007e+07 -2.0913296598769885e-09 -2.8132683083148468e-09 -2.0913296598769885e-09 -6.1380445389985338e+07 -6.5097466760285590e+06 -2.8132683083148468e-09 -6.5097466760285590e+06 -1.3800429182693975e+06  -1.7928129538564630e+07 -1.3274760918897253e-10 -1.7714793966762907e-09 -1.3274760918897253e-10 -3.2926655938501470e+07 -1.4907727556215147e+07 -1.7714793966762907e-09 -1.4907727556215147e+07 -1.2153633200671263e+06  -9.9607693662958853e+06 -1.2641472140064619e-09 -1.2427171553725821e-09 -1.2641472140064619e-09 -1.8290825933956411e+07 -3.5413080897606146e+06 -1.2427171553725821e-09 -3.5413080897606146e+06 -7.5754582737432630e+05  -9.6110087930296995e+06 -2.6267392788433495e-10 -1.1539812658216804e-09 -2.6267392788433495e-10 -1.7583009629234765e+07 -1.1286645892942807e+07 -1.1539812658216804e-09 -1.1286645892942807e+07 -2.5047248451801226e+06  -2.9731834018433564e+06 -7.6614326174261907e-10 -6.5131901286817176e-10 -7.6614326174261907e-10 -5.4522447459137943e+06 -2.5351301302113738e+06 -6.5131901286817176e-10 -2.5351301302113738e+06 -4.2557932585126796e+05  -3.5433229228678662e+06 -2.4563877463856794e-10 -6.3919436840717871e-10 -2.4563877463856794e-10 -6.4333496633137707e+06 -7.4237200695972387e+06 -6.3919436840717871e-10 -7.4237200695972387e+06 -2.2502649228232037e+06  3.3969690355156694e+05 -3.8258485013697980e-10 -2.0152568828851147e-10 -3.8258485013697980e-10 6.5955360580986447e+05 -1.2559583642091015e+06 -2.0152568828851147e-10 -1.2559583642091015e+06 -9.4209034443907719e+05  -1.0649212861741895e+06 -3.6923425712299028e-10 -4.5958715633024198e-10 -3.6923425712299028e-10 -1.9212128984570131e+06 -4.3162432402958702e+06 -4.5958715633024198e-10 -4.3162432402958702e+06 -1.0087314120613844e+06  1.1906751540367065e+06 -2.4746688586987761e-11 6.6774337979380225e-11 -2.4746688586987761e-11 2.1906464767442280e+06 3.9243144666981726e+05 6.6774337979380225e-11 3.9243144666981726e+05 -2.3785926022032407e+04  1.6402399465000741e+06 -1.5853239070751417e-10 3.3435572895907572e-12 -1.5853239070751417e-10 3.0136869963674517e+06 2.4225660687905189e+05 3.3435572895907572e-12 2.4225660687905189e+05 7.7757161894016870e+04  2.3628516493921741e+05 -1.6718009231115191e-10 -2.5333355987160654e-11 -1.6718009231115191e-10 4.5937754915799695e+05 7.8349494627504057e+04 -2.5333355987160654e-11 7.8349494627504057e+04 -6.7173593779322179e+05  5.5470362676414754e+05 4.1727831743832990e-12 3.9554566182819944e-11 4.1727831743832990e-12 1.0168524611194965e+06 2.8443543672183331e+05 3.9554566182819944e-11 2.8443543672183331e+05 8.9329255042229401e+04  2.0327500348954866e+05 -7.7842119248579576e-11 -1.6317129596788814e-12 -7.7842119248579576e-11 3.7095400472283852e+05 4.8293456700433622e+05 -1.6317129596788814e-12 4.8293456700433622e+05 7.8155677936633423e+04  2.0075683079719433e+05 1.2072083861773450e-11 2.0807330537989650e-11 1.2072083861773450e-11 3.6697604102431284e+05 1.4731309941739691e+05 2.0807330537989650e-11 1.4731309941739691e+05 6.0481638679542113e+04  8.2077323759334293e+04 -4.2423062609173179e-11 1.0843826603069826e-12 -4.2423062609173179e-11 1.4544915598669881e+05 4.0664651813772600e+05 1.0843826603069826e-12 4.0664651813772600e+05 1.4879033897324750e+05  1.2616940880458609e+04 2.7431363411419436e-12 4.3252842086584811e-12 2.7431363411419436e-12 2.2208734041282114e+04 6.0153531641187248e+04 4.3252842086584811e-12 6.0153531641187248e+04 2.6923578930158539e+04  1.2012985389093974e+04 -1.0083389879485247e-11 -1.9959074148956219e-12 -1.0083389879485247e-11 1.7302942172130464e+04 1.5409289910497126e+05 -1.9959074148956219e-12 1.5409289910497126e+05 1.2960873528943973e+05  -8.5391040182603429e+03 2.9220276825170096e-12 1.0844654177116629e-12 2.9220276825170096e-12 -1.5840102790962430e+04 3.4384258786718601e+03 1.0844654177116629e-12 3.4384258786718601e+03 3.6760482891631023e+03  9.1519597478601954e+03 -7.6056431474718912e-13 -1.5337180541555855e-12 -7.6056431474718912e-13 1.4133973326218857e+04 4.3747305370140923e+04 -1.5337180541555855e-12 4.3747305370140923e+04 7.2984352227580122e+04  -8.3850630568288288e+03 9.1408732819786577e-13 -4.0589137457165982e-13 9.1408732819786577e-13 -1.5490855894977094e+04 -5.5980789878128553e+03 -4.0589137457165982e-13 -5.5980789878128553e+03 1.8915841928893356e+03  5.1379068353848625e+03 1.3723860247535899e-12 2.1654651926773116e-13 1.3723860247535899e-12 9.0709590459790179e+03 -6.3850887330905880e+02 2.1654651926773116e-13 -6.3850887330905880e+02 1.0231861916628532e+04  -3.6601980427326016e+03 1.5245006277817465e-13 -1.6011984468481483e-13 1.5245006277817465e-13 -6.6843398154767829e+03 -2.3239206327957713e+03 -1.6011984468481483e-13 -2.3239206327957713e+03 -1.2749620844487490e+03  1.9697528567411346e+