<?xml version="1.0"?>
<VTKFile type="UnstructuredGrid"  version="0.1"  >
<UnstructuredGrid>
<Piece  NumberOfPoints="10500" NumberOfCells="20574">
<Points>
<DataArray  type="Float64"  NumberOfComponents="3"  format="ascii">4.060954603629186e-23 9.664837448680977e-07 4.820547207463946e-08  4.058356772359489e-23 9.665231817210039e-07 4.84789007663092e-08  4.062311207542363e-23 9.667023823570343e-07 4.830191754601854e-08  4.117583390641118e-23 9.668078688549436e-07 4.342892837977771e-08  4.113559651713327e-23 9.666129750039054e-07 4.359646071145624e-08  4.114754043066672e-23 9.66827597057266e-07 4.370350155573971e-08  4.115565794404773e-23 9.665468133852883e-07 4.334960182328618e-08  4.163927399695612e-23 9.672351824282232e-07 3.96819447148838e-08  4.161509772263815e-23 9.673116841586142e-07 3.99762069652941e-08  4.16557598346807e-23 9.674435308043456e-07 3.974180186573969e-08  4.054103932234444e-23 9.668484844120507e-07 4.918726524140444e-08  4.058178095045444e-23 9.670547961638921e-07 4.90266090308965e-08  4.057509323459371e-23 9.668314134701187e-07 4.886346392643973e-08  4.06475262806997e-23 9.666684253096567e-07 4.804805688707327e-08  4.11161503072924e-23 9.666478220324139e-07 4.380646362675091e-08  4.11166036428938e-23 9.668071563701283e-07 4.396171468037431e-08  4.065662651683348e-23 9.668512378308705e-07 4.814890176816497e-08  4.107985336258048e-23 9.667247671054229e-07 4.421034251311858e-08  4.111699112202118e-23 9.669929141833387e-07 4.41439823918773e-08  4.068900310337415e-23 9.668964960704183e-07 4.790253764155255e-08  4.111519377667848e-23 9.663743021831922e-07 4.354155943936211e-08  4.118372960531693e-23 9.670429093819139e-07 4.359285077344857e-08  4.075380732462867e-23 9.667017591305324e-07 4.712409616827879e-08  4.076621937323378e-23 9.669336325554034e-07 4.7244171798204e-08  4.079116351514928e-23 9.669083622687312e-07 4.699422465506047e-08  4.107392913027877e-23 9.669155569712833e-07 4.445449311975183e-08  4.08233024155007e-23 9.671202606994716e-07 4.691664160650733e-08  4.079731955782977e-23 9.670861420683252e-07 4.711655575161057e-08  4.143960606260071e-23 9.669651437914338e-07 4.121035494761618e-08  4.142568227901581e-23 9.670513751986762e-07 4.142200064798763e-08  4.146958393821268e-23 9.672194130248751e-07 4.119460748218662e-08  4.112467029720198e-23 9.672545125638256e-07 4.433641291139866e-08  4.082390896642177e-23 9.673040983295787e-07 4.709501591161019e-08  4.073068229337575e-23 9.667717815627109e-07 4.740241036472447e-08  4.13865448749139e-23 9.669074456437993e-07 4.163058949017002e-08  4.141096745112249e-23 9.671488751776399e-07 4.165204001378574e-08  4.060012909578839e-23 9.667543845848878e-07 4.856093205091431e-08  4.055882787078781e-23 9.665737785238864e-07 4.875233435295812e-08  4.140226820108435e-23 9.668289095352257e-07 4.141043024983184e-08  4.16767993146711e-23 9.673998054154632e-07 3.950856968836756e-08  4.115234408102774e-23 9.670314553210368e-07 4.386409238355863e-08  4.168532100614743e-23 9.67024539474629e-07 3.905654717441856e-08  4.169055904008017e-23 9.671874324384344e-07 3.917226012288874e-08  4.171582569337832e-23 9.671810940533271e-07 3.893833995702458e-08  4.109693633017334e-23 9.6644759070464e-07 4.377929641936442e-08  4.097161321414532e-23 9.671745428272031e-07 4.563505881921698e-08  4.09730787745787e-23 9.670098268825398e-07 4.545714227971035e-08  4.094785242084848e-23 9.66977131627709e-07 4.565166581939823e-08  4.164622978020897e-23 9.675549826265895e-07 3.993909278751892e-08  4.144550059277587e-23 9.67255439889344e-07 4.144755783772561e-08  4.144077530919689e-23 9.673954304796315e-07 4.163010999874418e-08  4.121417556643835e-23 9.670710387642109e-07 4.334674731742283e-08  4.12121756360169e-23 9.669131790380407e-07 4.320690136305427e-08  4.1194428614993e-23 9.667045247863427e-07 4.315809806589658e-08  4.151000440389909e-23 9.67279791906186e-07 4.089091117509072e-08  4.155023801402529e-23 9.673336728271893e-07 4.058239995294958e-08  4.150805388862208e-23 9.67087906094001e-07 4.071659404265499e-08  4.150259680356262e-23 9.66887558977594e-07 4.056539997872864e-08  4.154058181220079e-23 9.670964324550183e-07 4.043213491465591e-08  4.100372010474515e-23 9.67228806795266e-07 4.540012962619705e-08  4.151022114966114e-23 9.674677145689423e-07 4.107688156558049e-08  4.067540423992472e-23 9.666811393555309e-07 4.780966859939224e-08  4.147407325398766e-23 9.670432557000769e-07 4.09780139956857e-08  4.147444916460007e-23 9.676244894958347e-07 4.155586188965554e-08  4.147656092885758e-23 9.674435849468939e-07 4.135593625926831e-08  4.060602034861554e-23 9.67056719858685e-07 4.881020363663736e-08  4.078379278232457e-23 9.671749293523293e-07 4.732718139786419e-08  4.116008460369802e-23 9.67258477781694e-07 4.402139441418882e-08  4.056530826229038e-23 9.671204961754646e-07 4.92406818270239e-08  4.174722945744329e-23 9.673391644155027e-07 3.881355035891817e-08  4.173757890370689e-23 9.671509130028896e-07 3.87122234067273e-08  4.161549365984639e-23 9.674999869776575e-07 4.016094349901042e-08  4.166310038796398e-23 9.671908773800201e-07 3.94230306153516e-08  4.071757384152297e-23 9.665846333802732e-07 4.733333262004594e-08  4.078825553452253e-23 9.667332166886016e-07 4.684527183586487e-08  4.082085842263331e-23 9.66946649713193e-07 4.676504415096248e-08  4.176654975434308e-23 9.673133611955305e-07 3.861372537510875e-08  4.176581206709226e-23 9.671666062753999e-07 3.847361495103393e-08  4.170432848606449e-23 9.669833829596848e-07 3.884418650053098e-08  4.068217688758191e-23 9.670490685064712e-07 4.811659516340198e-08  4.064363021089304e-23 9.669429945894192e-07 4.835771884389473e-08  4.123314742202637e-23 9.66889997017905e-07 4.29948222876035e-08  4.137234447652447e-23 9.669957702118047e-07 4.184681987596572e-08  4.128807594330202e-23 9.669297172919931e-07 4.25397904257934e-08  4.131606573186203e-23 9.669179770642802e-07 4.227594059542241e-08  4.127946345743162e-23 9.667500866452259e-07 4.243773415533952e-08  4.200780187397507e-23 9.669596206496023e-07 3.608697891702666e-08  4.202905465386593e-23 9.669133046878183e-07 3.584923493204844e-08  4.199364101834488e-23 9.667468083613813e-07 3.600171627708436e-08  4.180185798961583e-23 9.672332235588094e-07 3.821555942795277e-08  4.175745407768369e-23 9.669656906116072e-07 3.834798136321328e-08  4.187775385012511e-23 9.667981541501574e-07 3.709688088108365e-08  4.18926503099786e-23 9.670225377268258e-07 3.718708907566132e-08  4.191271647343993e-23 9.669588679785608e-07 3.6942679394822e-08  4.193238269143062e-23 9.672220907796207e-07 3.702876465185247e-08  4.068846440878433e-23 9.665779249274248e-07 4.758881862806702e-08  4.12440300846039e-23 9.670990555471482e-07 4.310585850658872e-08  4.132128987432998e-23 9.671282081909192e-07 4.243911682991755e-08  4.082225380833039e-23 9.667856126496693e-07 4.659143857042796e-08  4.093939027097729e-23 9.668073271351263e-07 4.555808159682882e-08  4.064113689707934e-23 9.664643755382223e-07 4.790155756702241e-08  4.15885831809329e-23 9.674742811187217e-07 4.03776256856888e-08  4.157997263015605e-23 9.672938788026174e-07 4.027478031612474e-08  4.121902419765509e-23 9.666613758448732e-07 4.289341181060309e-08  4.071014600839846e-23 9.668243274472567e-07 4.763993066001294e-08  4.108448426838987e-23 9.665609154793217e-07 4.400477939566227e-08  4.088874889087111e-23 9.670928040021175e-07 4.629969546497153e-08  4.085656889894234e-23 9.668495580583572e-07 4.634630112052953e-08  4.085396668666196e-23 9.670087823245236e-07 4.652896403120852e-08  4.13993767467601e-23 9.672779123965859e-07 4.188547701642649e-08  4.185731269703955e-23 9.668514258953063e-07 3.733427016507084e-08  4.147255059319684e-23 9.668625978121061e-07 4.081107101685524e-08  4.061805029129426e-23 9.669751855970575e-07 4.862031328427949e-08  4.157197919508939e-23 9.670941433100304e-07 4.014704328591304e-08  4.172492460957528e-23 9.673605972338543e-07 3.903588738636347e-08  4.172933028818893e-23 9.669650127145199e-07 3.860062004190366e-08  4.119221739578699e-23 9.672636838690477e-07 4.373717404058591e-08  4.085310924753603e-23 9.671681989562245e-07 4.669610378796541e-08  4.071696095215955e-23 9.671394324433319e-07 4.789365209972208e-08  4.16514354827666e-23 9.66955627944708e-07 3.929284930543995e-08  4.194656063501658e-23 9.671022531247104e-07 3.678122343404102e-08  4.187102119457336e-23 9.670736316257627e-07 3.743300072675703e-08  4.096445593185277e-23 9.668306584515997e-07 4.535564151134501e-08  4.100112474425009e-23 9.670124654452111e-07 4.520716520525902e-08  4.13449878974253e-23 9.671386478005562e-07 4.22361036235915e-08  4.103892682536792e-23 9.666101903759112e-07 4.446439925908695e-08  4.193191846452337e-23 9.66896493211918e-07 3.670734846840282e-08  4.189816144664103e-23 9.66746091735303e-07 3.686100317809993e-08  4.092088628973618e-23 9.66835490250381e-07 4.575291375812826e-08  4.092888516744457e-23 9.67026746469914e-07 4.587212249232747e-08  4.08526500052934e-23 9.673261212933455e-07 4.685816261147201e-08  4.089114215546547e-23 9.669309931639473e-07 4.611632801573064e-08  4.167386845613007e-23 9.676308198595203e-07 3.976598295929118e-08  4.141597496498236e-23 9.667674133396874e-07 4.122547450072646e-08  4.196562636589899e-23 9.670499253413337e-07 3.655716681366921e-08  4.195174094461698e-23 9.668445183311858e-07 3.647682855974431e-08  4.135629364881308e-23 9.670610376122717e-07 4.205666027983273e-08  4.162512554514216e-23 9.670117681867347e-07 3.958596839802978e-08  4.126006463078496e-23 9.669025741345082e-07 4.276495074153661e-08  4.170075001518446e-23 9.673794721181828e-07 3.927250765927268e-08  4.083860688463791e-23 9.675065901585612e-07 4.716512066259007e-08  4.085935263986963e-23 9.675062252454363e-07 4.697789459840307e-08  4.197274292453497e-23 9.667912609159967e-07 3.623440212668986e-08  4.193758748542527e-23 9.666351898508859e-07 3.639498310652801e-08  4.15993131866589e-23 9.670627134762419e-07 3.986941074363054e-08  4.102715892037227e-23 9.667506945828744e-07 4.471089933115678e-08  4.105001480739781e-23 9.669884711419454e-07 4.47428
[...]
<PointData  Vectors="f_25"> 
<DataArray  type="Float64"  Name="f_25"  NumberOfComponents="3" format="ascii">0.0000000000000000e+00 4.5708071714539959e-10 -3.2199878861944270e-11  0.0000000000000000e+00 4.5778091157527543e-10 -3.0120888969581575e-11  0.0000000000000000e+00 4.6091663542789371e-10 -3.1420482481846194e-11  0.0000000000000000e+00 4.6251192155304345e-10 -6.8525787737829764e-11  0.0000000000000000e+00 4.5911312463111265e-10 -6.7333367193202779e-11  0.0000000000000000e+00 4.6287555127500827e-10 -6.6403129619091634e-11  0.0000000000000000e+00 4.5794069777131935e-10 -6.9269922019451401e-11  0.0000000000000000e+00 4.6971315757886741e-10 -9.7358377601556490e-11  0.0000000000000000e+00 4.7107381487583589e-10 -9.4990811195983304e-11  0.0000000000000000e+00 4.7336298671026681e-10 -9.6718068069677067e-11  0.0000000000000000e+00 4.6350752847755691e-10 -2.4705912691941394e-11  0.0000000000000000e+00 4.6712434303624650e-10 -2.5877021771589097e-11  0.0000000000000000e+00 4.6319834002866203e-10 -2.7151293655791941e-11  0.0000000000000000e+00 4.6031175414473862e-10 -3.3349186691973936e-11  0.0000000000000000e+00 4.5973607155786065e-10 -6.5699536093332398e-11  0.0000000000000000e+00 4.6253417683058248e-10 -6.4429393579367921e-11  0.0000000000000000e+00 4.6352190513815806e-10 -3.2542268134738224e-11  0.0000000000000000e+00 4.6110714430025982e-10 -6.2559901510688763e-11  0.0000000000000000e+00 4.6579884365856121e-10 -6.2941075924041405e-11  0.0000000000000000e+00 4.6430632723257328e-10 -3.4393058626182061e-11  0.0000000000000000e+00 4.5493723520437298e-10 -6.7871962705533431e-11  0.0000000000000000e+00 4.6663832705742756e-10 -6.7142668172169091e-11  0.0000000000000000e+00 4.6085920545140205e-10 -4.0341717230497848e-11  0.0000000000000000e+00 4.6493061228027850e-10 -3.9362875051863409e-11  0.0000000000000000e+00 4.6447584081855928e-10 -4.1264163917476463e-11  0.0000000000000000e+00 4.6446314852440650e-10 -6.0600453117346167e-11  0.0000000000000000e+00 4.6819004699996453e-10 -4.1784030320659282e-11  0.0000000000000000e+00 4.6760077125908804e-10 -4.0282309602354490e-11  0.0000000000000000e+00 4.6510702189795286e-10 -8.5610241929319769e-11  0.0000000000000000e+00 4.6663055961350935e-10 -8.3905526971871614e-11  0.0000000000000000e+00 4.6955370032779062e-10 -8.5557745006873855e-11  0.0000000000000000e+00 4.7039625975579347e-10 -6.1340762228269051e-11  0.0000000000000000e+00 4.7142656152775511e-10 -4.0375555505232399e-11  0.0000000000000000e+00 4.6209867081475507e-10 -3.8211454480955529e-11  0.0000000000000000e+00 4.6412886211502299e-10 -8.2378474270906396e-11  0.0000000000000000e+00 4.6835382079986566e-10 -8.2054957124846902e-11  0.0000000000000000e+00 4.6183735081424843e-10 -2.9451297204857352e-11  0.0000000000000000e+00 4.5867634242117326e-10 -2.8042010618278441e-11  0.0000000000000000e+00 4.6274010390469836e-10 -8.4141855227666676e-11  0.0000000000000000e+00 4.7257963875606531e-10 -9.8582468989057468e-11  0.0000000000000000e+00 4.6645593698907567e-10 -6.5067033360945224e-11  0.0000000000000000e+00 4.6598639192223302e-10 -1.0245444475524477e-10  0.0000000000000000e+00 4.6884037170291476e-10 -1.0140573616310793e-10  0.0000000000000000e+00 4.6871267330292384e-10 -1.0325555320513536e-10  0.0000000000000000e+00 4.5623244940724991e-10 -6.6003594283819858e-11  0.0000000000000000e+00 4.6907477800441065e-10 -5.1483055620074639e-11  0.0000000000000000e+00 4.6617544390862484e-10 -5.2904212166013011e-11  0.0000000000000000e+00 4.6561374362074927e-10 -5.1436123778413362e-11  0.0000000000000000e+00 4.7532989602080240e-10 -9.5083164073240407e-11  0.0000000000000000e+00 4.7020397948384647e-10 -8.3568704888952887e-11  0.0000000000000000e+00 4.7266988791181419e-10 -8.2058035022938515e-11  0.0000000000000000e+00 4.6711424587631922e-10 -6.9018653198712127e-11  0.0000000000000000e+00 4.6434064155144634e-10 -7.0179794893134431e-11  0.0000000000000000e+00 4.6068610414506511e-10 -7.0667249611483389e-11  0.0000000000000000e+00 4.7058737146529079e-10 -8.7876369538732395e-11  0.0000000000000000e+00 4.7150608603184318e-10 -9.0239166631361901e-11  0.0000000000000000e+00 4.6721647971836516e-10 -8.9374073367059900e-11  0.0000000000000000e+00 4.6370303838026679e-10 -9.0698720085503804e-11  0.0000000000000000e+00 4.6734425800896904e-10 -9.1589630280437269e-11  0.0000000000000000e+00 4.7001297264121262e-10 -5.3246336869034163e-11  0.0000000000000000e+00 4.7389244163861110e-10 -8.6293564273911977e-11  0.0000000000000000e+00 4.6052583874720884e-10 -3.5150779996398928e-11  0.0000000000000000e+00 4.6645539129854090e-10 -8.7366829325541508e-11  0.0000000000000000e+00 4.7667905865635005e-10 -8.2470880120775134e-11  0.0000000000000000e+00 4.7349216578931829e-10 -8.4146933121082784e-11  0.0000000000000000e+00 4.6715191608876866e-10 -2.7506414309209159e-11  0.0000000000000000e+00 4.6916906788664281e-10 -3.8662440322610280e-11  0.0000000000000000e+00 4.7044555699257037e-10 -6.3746393486040437e-11  0.0000000000000000e+00 4.6828504382415490e-10 -2.4253209093394334e-11  0.0000000000000000e+00 4.7146641597660146e-10 -1.0410195709661444e-10  0.0000000000000000e+00 4.6816878823580866e-10 -1.0506795342732501e-10  0.0000000000000000e+00 4.7438421848591139e-10 -9.3395978231067036e-11  0.0000000000000000e+00 4.6891913180380859e-10 -9.9428652140950126e-11  0.0000000000000000e+00 4.5881560726115351e-10 -3.8787229412033771e-11  0.0000000000000000e+00 4.6139835246817917e-10 -4.2448552269826365e-11  0.0000000000000000e+00 4.6513675854644126e-10 -4.2989251806316157e-11  0.0000000000000000e+00 4.7100048373649497e-10 -1.0570243595748888e-10  0.0000000000000000e+00 4.6842588217546708e-10 -1.0694280057540556e-10  0.0000000000000000e+00 4.6525228934616944e-10 -1.0416754607365201e-10  0.0000000000000000e+00 4.6699238110072956e-10 -3.2737292956405290e-11  0.0000000000000000e+00 4.6513957267776061e-10 -3.0943427660113470e-11  0.0000000000000000e+00 4.6392025505330878e-10 -7.1827061954559475e-11  0.0000000000000000e+00 4.6568954847074895e-10 -8.0643361238456642e-11  0.0000000000000000e+00 4.6458363553294236e-10 -7.5318120133865991e-11  0.0000000000000000e+00 4.6435959625667155e-10 -7.7365975424023028e-11  0.0000000000000000e+00 4.6143421854718139e-10 -7.6211250540303428e-11  0.0000000000000000e+00 4.6466104595641546e-10 -1.2624016826021759e-10  0.0000000000000000e+00 4.6384151801982068e-10 -1.2821369829748511e-10  0.0000000000000000e+00 4.6094875139132070e-10 -1.2715024308122013e-10  0.0000000000000000e+00 4.6957037069200809e-10 -1.0892826691883110e-10  0.0000000000000000e+00 4.6490825196267709e-10 -1.0811690796062460e-10  0.0000000000000000e+00 4.6190411350700843e-10 -1.1826186910210467e-10  0.0000000000000000e+00 4.6582215339643546e-10 -1.1732382825062221e-10  0.0000000000000000e+00 4.6469657993743637e-10 -1.1934593544955446e-10  0.0000000000000000e+00 4.6929474084092790e-10 -1.1839403213422494e-10  0.0000000000000000e+00 4.5870816378326721e-10 -3.6850967376454359e-11  0.0000000000000000e+00 4.6758839846595741e-10 -7.0855492228754650e-11  0.0000000000000000e+00 4.6805069065774758e-10 -7.5977783450389864e-11  0.0000000000000000e+00 4.6230486923937101e-10 -4.4359521988698921e-11  0.0000000000000000e+00 4.6263191520547351e-10 -5.2215255627009486e-11  0.0000000000000000e+00 4.5673028036429504e-10 -3.4507902772441072e-11  0.0000000000000000e+00 4.7395173414313495e-10 -9.1726407335399369e-11  0.0000000000000000e+00 4.7078570312063374e-10 -9.2670055963724338e-11  0.0000000000000000e+00 4.5991407239200119e-10 -7.2734664676312273e-11  0.0000000000000000e+00 4.6303018610973574e-10 -3.6398254125295372e-11  0.0000000000000000e+00 4.5822778494590816e-10 -6.4215126253690054e-11  0.0000000000000000e+00 4.6767755688890803e-10 -4.6468106091807814e-11  0.0000000000000000e+00 4.6341382149952735e-10 -4.6200434076487463e-11  0.0000000000000000e+00 4.6621519510662985e-10 -4.4758679340719820e-11  0.0000000000000000e+00 4.7063065450705937e-10 -8.0161855499042085e-11  0.0000000000000000e+00 4.6284735261310661e-10 -1.1630729966146516e-10  0.0000000000000000e+00 4.6328491262371871e-10 -8.8794995913579194e-11  0.0000000000000000e+00 4.6571403412895950e-10 -2.8954986682687059e-11  0.0000000000000000e+00 4.6728239510536873e-10 -9.3822611479163802e-11  0.0000000000000000e+00 4.7185783991167278e-10 -1.0233103337019085e-10  0.0000000000000000e+00 4.6491439378370513e-10 -1.0611251921735601e-10  0.0000000000000000e+00 4.7051722397043661e-10 -6.5918986854322063e-11  0.0000000000000000e+00 4.6902086322829589e-10 -4.3437353053634324e-11  0.0000000000000000e+00 4.6857051433754505e-10 -3.4395962050623396e-11  0.0000000000000000e+00 4.6479920162975600e-10 -1.0064587478443006e-10  0.0000000000000000e+00 4.6718773963262405e-10 -1.2049932413159396e-10  0.0000000000000000e+00 4.6672956575936279e-10 -1.1530737412302148e-10  0.0000000000000000e+00 4.6302923882615547e-10 -5.3750259909579559e-11  0.0000000000000000e+00 4.6620700583131919e-10 -5.4807716596732917e-11  0.0000000000000000e+00 4.6821931257845658e-10 -7.7539760857562893e-11  0.0000000000000000e+00 4.5911748307824709e-10 -6.0662164480976532e-11  0.0000000000000000e+00 4.6359493874333561e-10 -1.2129927800840836e-10  0.0000000000000000e+00 4.6098286276042585e-10 -1.2020809959081992e-10  0.0000000000000000e+00 4.6313666145352578e-10 -5.0719630587160219e-11  0.0000000000000000e+00 4.6649576787544219e-10 -4.9739813114646874e-11  0.0000000000000000e+00 4.7180199874670761e-10 -4.2157630843936114e-11  0.0000000000000000e+00 4.6482973942079388e-10 -4.7919294055220685e-11  0.0000000000000000e+00 4.7664474201279124e-10 -9.6371398379393178e-11  0.0000000000000000e+00 4.6165218131710940e-10 -8.5623300215520076e-11  0.0000000000000000e+00 4.6626178762545781e-10 -1.2235372071770938e-10  0.0000000000000000e+00 4.6267605666254597e-10 -1.2320871962051993e-10  0.0000000000000000e+00 4.6684702536855278e-10 -7.8976057674493024e-11  0.0000000000000000e+00 4.6580114072006382e-10 -9.8291512197300384e-11  0.0000000000000000e+00 4.6412433029563575e-10 -7.3594255560910665e-11  0.0000000000000000e+00 4.7220570834972689e-10 -1.0045340787050919e-10  0.0000000000000000e+00 4.7498870859755195e-10 -3.9780340110762062e-11  0.0000000000000000e+00 4.7497261798634518e-10 -4.1192264877500720e-11  0.0000000000000000e+00 4.6173503828367155e-10 -1.2522070502732154e-10  0.0000000000000000e+00 4.5902545083994237e-10 -1.2407590932926507e-10  0.0000000000000000e+00 4.6671234185683913e-10 -9.6023802931239642e-11  0.0000000000000000e+00 4.6159126656549494e-10 -5.8711217510688031e-11  0.0000000000000000e+00 4.6575837688778276e-10 -5.8361745251542482e-11  0.0000000000000000e+00 4.6821630304661024e-10 -5.6631068043410922e-11  0.0000000000000000e+00 4.6371066012758986e-10 -5.6788515133110441e-11  0.0000000000000000e+00 4.6133445823647121e-10 -5.5211641259447971e-11  0.0000000000000000e+00 4.5372315157259709e-10 -6.9873825171293987e-11  0.0000000000000000e+00 4.5660837002385441e-10 -7.1243748999449967e-11  0.0000000000000000e+00 4.6484035310151487e-10 -1.1014114468284818e-10  0.0000000000000000e+00 4.5901738233880866e-10 -5.3318548202876642e-11  0.0000000000000000e+00 4.7048490653787449e-10 -7.8479669382334078e-11  0.0000000000000000e+00 4.7445693599599797e-10 -6.4781613117954471e-11  0.0000000000000000e+00 4.6006469762170298e-10 -1.2208292545189033e-10  0.0000000000000000e+00 4.6114696182220259e-10 -1.0912606318544113e-10  0.0000000000000000e+00 4.6839360679009826e-10 -5.9608302959471650e-11  0.0000000000000000e+00 4.6266248678033281e-10 -1.0291495434376493e-10  0.0000000000000000e+00 4.5936668404207037e-10 -1.3726417499496057e-10  0.0000000000000000e+00 4.5750136619174310e-10 -1.3915127453044617e-10  0.0000000000000000e+00 4.5614307974586867e-10 -1.3711236415684714e-10  0.0000000000000000e+00 4.6798584727732258e-10 -7.4350018369558634e-11  0.0000000000000000e+00 4.7021745043344985e-10 -4.5071323145432770e-11  0.0000000000000000e+00 4.7477698381189722e-10 -8.8366307598010697e-11  0.0000000000000000e+00 4.7051926772054004e-10 -1.1992844865582255e-10  0.0000000000000000e+00 4.6073904411399794e-10 -1.1117195436842418e-10  0.0000000000000000e+00 4.5652209231087519e-10 -4.0147547898235909e-11  0.0000000000000000e+00 4.5752925897686778e-10 -4.2032216407349651e-11  0.0000000000000000e+00 4.7257642291041742e-10 -1.0700305954132800e-10  0.0000000000000000e+00 4.6104042157393678e-10 -7.4626956335631835e-11  0.0000000000000000e+00 4.6768277904499802e-10 -1.2719111618469614e-10  0.0000000000000000e+00 4.6426263449392047e-10 -1.1224169374834066e-10  0.0000000000000000e+00 4.7073691782387827e-10 -6.7814309716787229e-11  0.0000000000000000e+00 4.6265366735871300e-10 -7.9213832482459508e-11  0.0000000000000000e+00 4.5320084290741088e-10 -3.2800616717698353e-11  0.0000000000000000e+00 4.6357036481405539e-10 -1.1430043799097188e-10  0.0000000000000000e+00 4.6566964900412717e-10 -3.7652425190997804e-11  0.0000000000000000e+00 4.6185196592701772e-10 -4.9331175630843703e-11  0.0000000000000000e+00 4.5238115965022207e-10 -7.1819393268267916e-11  0.0000000000000000e+00 4.5932294286619973e-10 -5.7009130504607355e-11  0.0000000000000000e+00 4.5971926680823851e-10 -5.1044780188678152e-11  0.0000000000000000e+00 4.6769655461721318e-10 -7.2580848063721091e-11  0.0000000000000000e+00 4.5515528957697592e-10 -7.3190312091854989e-11  0.0000000000000000e+00 4.6368545418212677e-10 -9.2730729749079874e-11  0.0000000000000000e+00 4.7339351163372770e-10 -1.1878125007352595e-10  0.0000000000000000e+00 4.5374551849478353e-10 -3.0843018962758162e-11  0.0000000000000000e+00 4.5207735351103639e-10 -6.6431328043590791e-11  0.0000000000000000e+00 4.5071602619246264e-10 -6.8393918615124974e-11  0.0000000000000000e+00 4.7616403665332965e-10 -9.7873901035016187e-11  0.0000000000000000e+00 4.6546456447105877e-10 -1.2429401587182915e-10  0.0000000000000000e+00 4.6939291776871075e-10 -4.8139558587145793e-11  0.0000000000000000e+00 4.6259703847245961e-10 -8.7080862970199563e-11  0.0000000000000000e+00 4.6854999931732722e-10 -2.9953927416239755e-11  0.0000000000000000e+00 4.7437717909378158e-10 -6.6815391341041853e-11  0.0000000000000000e+00 4.7254427215583368e-10 -4.3762179134588338e-11  0.0000000000000000e+00 4.6669428689341097e-10 -3.5941692094475240e-11  0.0000000000000000e+00 4.7335837754341175e-10 -1.2057372719440897e-10  0.0000000000000000e+00 4.4952242565778412e-10 -7.0479432949190031e-11  0.0000000000000000e+00 4.6130192814491008e-10 -8.1019978234859254e-11  0.0000000000000000e+00 4.5982452261428716e-10 -8.2799464128142337e-11  0.0000000000000000e+00 4.6194619392443245e-10 -9.9233013726171873e-11  0.0000000000000000e+00 4.6991435471017809e-10 -1.2153258114033776e-10  0.0000000000000000e+00 4.7134316360560063e-10 -5.5086927253970030e-11  0.0000000000000000e+00 4.6020054239372974e-10 -1.1325607599934993e-10  0.0000000000000000e+00 4.5556886491382931e-10 -3.8363329194934171e-11  0.0000000000000000e+00 4.7095959565052859e-10 -6.9796720431111285e-11  0.0000000000000000e+00 4.7423561935160635e-10 -7.8390908155304628e-11  0.0000000000000000e+00 4.6851872689615931e-10 -1.1119111450005586e-10  0.0000000000000000e+00 4.5759330725573245e-10 -7.4281538429561145e-11  0.0000000000000000e+00 4.5832485364039889e-10 -8.4709176082002576e-11  0.0000000000000000e+00 4.6695314907344366e-10 -1.2919992813531094e-10  0.0000000000000000e+00 4.6749540653950047e-10 -1.1330836864605337e-10  0.0000000000000000e+00 4.5965539236186926e-10 -1.1524970280034699e-10  0.0000000000000000e+00 4.5891532814686131e-10 -1.1722222321166128e-10  0.0000000000000000e+00 4.7081076534879006e-10 -3.2987061608469474e-11  0.0000000000000000e+00 4.6956919024675498e-10 -3.1403771109537501e-11  0.0000000000000000e+00 4.5969927843275591e-10 -8.9951100529392463e-11  0.0000000000000000e+00 4.5992423864089233e-10 -9.1878261788625990e-11  0.0000000000000000e+00 4.5795879668249157e-10 -7.5839462797962105e-11  0.0000000000000000e+00 4.5939485702033991e-10 -7.7788149658081212e-11  0.0000000000000000e+00 4.6088708815247872e-10 -1.4043763723755811e-10  0.0000000000000000e+00 4.5699450387658414e-10 -1.4135418576600920e-10  0.0000000000000000e+00 4.7069871012741288e-10 -2.6980500018169731e-11  0.0000000000000000e+00 4.7131471599829813e-10 -2.5334026902212876e-11  0.0000000000000000e+00 4.5223054621388811e-10 -3.4777779359413717e-11  0.0000000000000000e+00 4.4978754179292789e-10 -3.1487604133524528e-11  0.0000000000000000e+00 4.7175016862398596e-10 -7.5110434961242399e-11  0.0000000000000000e+00 4.7179929830652766e-10 -7.6910344438719459e-11  0.0000000000000000e+00 4.6346276703246588e-10 -9.4850455676125566e-11  0.0000000000000000e+00 4.6290092771355820e-10 -9.7009469008242991e-11  0.0000000000000000e+00 4.7737241228229280e-10 -8.4716248698522528e-11  0.0000000000000000e+00 4.7410628250595111e-10 -4.5234703978052950e-11  0.0000000000000000e+00 4.7177981264692624e-10 -4.6646707813210489e-11  0.0000000000000000e+00 4.7566875194476778e-10 -8.0391947271264343e-11  0.0000000000000000e+00 4.7340111454382493e-10 -1.1706598965619503e-10  0.0000000000000000e+00 4.6976713869511535e-10 -2.8555363874326083e-11  0.0000000000000000e+00 4.5643939618679058e-10 -6.2595617768547794e-11  0.0000000000000000e+00 4.6960300623119171e-10 -5.8153598219803935e-11  0.0000000000000000e+00 4.7004560492448256e-10 -1.1628535252081949e-10  0.0000000000000000e+00 4.7789850857249363e-10 -8.6799669683944075e-11  0.0000000000000000e+00 4.6140779734865921e-10 -1.0705944500166780e-10  0.0000000000000000e+00 4.7818705487893249e-10 -9.3702906942009897e-11  0.0000000000000000e+00 4.7726765602425437e-10 -9.2034361608360032e-11  0.0000000000000000e+00 4.7905201826393961e-10 -9.5263136826504745e-11  0.0000000000000000e+00 4.6053789597806417e-10 -4.7581326718381749e-11  0.0000000000000000e+00 4.7230463076744676e-10 -5.9263970235546286e-11  0.0000000000000000e+00 4.7483270158444289e-10 -6.2642080728335788e-11  0.0000000000000000e+00 4.7341647872288291e-10 -3.8617282535123785e-11  0.0000000000000000e+00 4.5952101504209884e-10 -4.5789120068582055e-11  0.0000000000000000e+00 4.5444805205776011e-10 -2.8783760549734835e-11  0.0000000000000000e+00 4.5849159228465919e-10 -4.3852073493904364e-11  0.0000000000000000e+00 4.5701724784622304e-10 -5.8949386448065613e-11  0.0000000000000000e+00 4.7605069306879023e-10 -9.0270667850775700e-11  0.0000000000000000e+00 4.6178287404504203e-10 -1.0499005202750017e-10  0.0000000000000000e+00 4.6322000087377056e-10 -1.3019209445722116e-10  0.0000000000000000e+00 4.7215040986514685e-10 -2.3772317054022489e-11  0.0000000000000000e+00 4.6951012143575743e-10 -2.2525904422292921e-11  0.0000000000000000e+00 4.6885548362827566e-10 -3.7091660501379986e-11  0.0000000000000000e+00 4.7529310566840029e-10 -1.0138507877549163e-10  0.0000000000000000e+00 4.7568056290083635e-10 -9.9602477424325003e-11  0.0000000000000000e+00 4.5447631314375355e-10 -3.6433500664058232e-11  0.0000000000000000e+00 4.7535178990662220e-10 -4.2640234542216859e-11  0.0000000000000000e+00 4.5397855013838486e-10 -6.4477466047982283e-11  0.0000000000000000e+00 4.5363112074518043e-10 -4.1619076133639866e-11  0.0000000000000000e+00 4.5893697940668703e-10 -1.3548155908750171e-10  0.0000000000000000e+00 4.6183621107462104e-10 -1.3833589248986028e-10  0.0000000000000000e+00 4.7938578989248689e-10 -9.8630491065116464e-11  0.0000000000000000e+00 4.7954897422762605e-10 -9.6940961844639819e-11  0.0000000000000000e+00 4.6238890796486437e-10 -1.3629701497851261e-10  0.0000000000000000e+00 4.7426130457088413e-10 -1.0520296318524795e-10  0.0000000000000000e+00 4.7487430751425526e-10 -1.0326839854231096e-10  0.0000000000000000e+00 4.7283078984693996e-10 -5.1645840980668764e-11  0.0000000000000000e+00 4.7123153426753596e-10 -4.9874948066879108e-11  0.0000000000000000e+00 4.5903459561854396e-10 -8.6610266284257203e-11  0.0000000000000000e+00 4.7794475324465118e-10 -1.0435773402651438e-10  0.0000000000000000e+00 4.5036160150898778e-10 -2.9535623098620443e-11  0.0000000000000000e+00 4.5515395980411421e-10 -7.6994596912142609e-11  0.0000000000000000e+00 4.7136294923690358e-10 -7.3373441458434756e-11  0.0000000000