<?xml version="1.0"?>
<VTKFile type="UnstructuredGrid"  version="0.1"  >
<UnstructuredGrid>
<Piece  NumberOfPoints="10032" NumberOfCells="19650">
<Points>
<DataArray  type="Float64"  NumberOfComponents="3"  format="ascii">3.901518079129386e-23 9.66732228998744e-07 6.281472165181667e-08  3.898834988629692e-23 9.664900834982315e-07 6.281424745879658e-08  3.89856056490728e-23 9.666501802062126e-07 6.299906205825768e-08  3.895422733336908e-23 9.664831813820316e-07 6.311469397589823e-08  3.896998584585018e-23 9.667226083363249e-07 6.321218086831587e-08  3.901780394277841e-23 9.664465600753998e-07 6.250542548037567e-08  3.906416780321384e-23 9.666390002717108e-07 6.228025714752587e-08  3.904101509164988e-23 9.664099139827283e-07 6.225971194488742e-08  3.92387934833227e-23 9.66604319375141e-07 6.067268795522091e-08  3.92287328780236e-23 9.667430161045423e-07 6.090200256117438e-08  3.925795880545247e-23 9.66820992819999e-07 6.071673552487465e-08  3.927915522128981e-23 9.668131181868059e-07 6.051794055074835e-08  3.875512840970735e-23 9.669435874173484e-07 6.536842368804066e-08  3.878224835139818e-23 9.669007776840083e-07 6.508133923611435e-08  3.874540683655308e-23 9.667184457994995e-07 6.523084621666176e-08  3.914062489003087e-23 9.664357487955205e-07 6.138834145593745e-08  3.913222935909718e-23 9.662710078600518e-07 6.129922074043785e-08  3.910354438129699e-23 9.662820479933335e-07 6.156863218438371e-08  3.936706165080823e-23 9.663336355183809e-07 5.92466671558781e-08  3.934055607125296e-23 9.66365068393723e-07 5.951684106763692e-08  3.937913788930944e-23 9.665374556522188e-07 5.934171420328784e-08  3.872229371466776e-23 9.667148375311332e-07 6.543542244251575e-08  3.913245278778743e-23 9.665308246726845e-07 6.155702508633829e-08  3.907649167930312e-23 9.664774226228155e-07 6.200767589110366e-08  3.916047518518924e-23 9.66261171098737e-07 6.103496819539713e-08  3.916647287857238e-23 9.664603235296323e-07 6.11800982069217e-08  3.947418929169226e-23 9.667524125589066e-07 5.870052418927108e-08  3.948150582280774e-23 9.666600402208747e-07 5.854225039762848e-08  3.944271388158096e-23 9.665215520448576e-07 5.875316896571925e-08  3.919827870200261e-23 9.665114705936205e-07 6.094476388181264e-08  3.909987176563304e-23 9.664291804743568e-07 6.174884464647836e-08  3.94121866323674e-23 9.665721220546204e-07 5.907870399184761e-08  3.906591999316795e-23 9.662288661530106e-07 6.185434070477686e-08  3.877837904059181e-23 9.664793546969011e-07 6.469476790241862e-08  3.873580833988881e-23 9.66334515012601e-07 6.493337100176443e-08  3.876369401549407e-23 9.665569753292526e-07 6.490465948188638e-08  3.971050891153242e-23 9.665308642915775e-07 5.635039801823692e-08  3.966845908176749e-23 9.663928554240628e-07 5.659114034604287e-08  3.96966736120832e-23 9.666204766430301e-07 5.656462766857771e-08  3.926966996837183e-23 9.66635624993849e-07 6.042588292080534e-08  3.962564626994605e-23 9.663382254682564e-07 5.692213391696791e-08  3.966356257302747e-23 9.665625810804551e-07 5.680496983230915e-08  3.932648701352314e-23 9.666021956357616e-07 5.988069111597438e-08  3.932122865038443e-23 9.664218380245182e-07 5.974769662927516e-08  3.928735172441469e-23 9.663563972974152e-07 5.998739212451976e-08  3.946902747681434e-23 9.664704129168287e-07 5.84650180423146e-08  3.950938633147792e-23 9.66688344261553e-07 5.831942914139094e-08  3.936574463928754e-23 9.666523598240587e-07 5.957725404674358e-08  3.903272061678899e-23 9.666553915200398e-07 6.257989946998437e-08  3.876638111919721e-23 9.667073715258211e-07 6.503085239998247e-08  3.873748190205519e-23 9.665315152976352e-07 6.511529717890083e-08  3.88295179594522e-23 9.662756981569562e-07 6.403049293062615e-08  3.882963485824601e-23 9.664280703967085e-07 6.418181223964998e-08  3.886284604863409e-23 9.665268123995887e-07 6.398141443321764e-08  3.910762153507523e-23 9.667432831772192e-07 6.199314363179658e-08  3.91661643510128e-23 9.66623740840102e-07 6.134629448659614e-08  3.903395406084176e-23 9.662148922450466e-07 6.212829031863839e-08  3.889173574196124e-23 9.665053456115569e-07 6.369973242097986e-08  3.892394520540516e-23 9.666999643096529e-07 6.36042340639481e-08  3.892791460084832e-23 9.665435254408525e-07 6.341204205947028e-08  3.890159998550311e-23 9.667348853777545e-07 6.384042298009849e-08  3.888848248180718e-23 9.663071093967399e-07 6.353079896859784e-08  3.879886554682457e-23 9.663987449570562e-07 6.442963211890184e-08  3.884267227520168e-23 9.666272203345298e-07 6.426353156518439e-08  3.920378819005498e-23 9.663572217029504e-07 6.074088993446333e-08  3.924061758077818e-23 9.664275009594088e-07 6.047943953024707e-08  3.880295806516201e-23 9.662472049813807e-07 6.424123001510734e-08  3.962524594094956e-23 9.66869134495342e-07 5.745664878709239e-08  3.962752105998887e-23 9.66680989673551e-07 5.724801151478609e-08  3.960090975978855e-23 9.666842021422607e-07 5.749091726682779e-08  3.863087747666802e-23 9.669832439757224e-07 6.65272331578874e-08  3.862997081478696e-23 9.66792603740578e-07 6.634475940696242e-08  3.858595937382213e-23 9.66749462763624e-07 6.669803824826686e-08  3.919682162214074e-23 9.666816832216195e-07 6.11281007184577e-08  3.945036984653331e-23 9.667227925228219e-07 5.888545064187032e-08  3.885735372588969e-23 9.662970127027207e-07 6.380108518167969e-08  3.929209155147699e-23 9.661679197100395e-07 5.975622197036092e-08  3.907063530272485e-23 9.668542733970052e-07 6.243727621604466e-08  3.928653399061136e-23 9.665505893231405e-07 6.018894964154904e-08  3.941027904970992e-23 9.667725194091306e-07 5.929628332344865e-08  3.981346784913608e-23 9.665909555903977e-07 5.548311765100456e-08  3.985830087258865e-23 9.667412652516985e-07 5.522960733687556e-08  3.981951964592905e-23 9.664449808203386e-07 5.528263314138195e-08  3.879745710331297e-23 9.66773049849891e-07 6.481662314308459e-08  3.904641354314281e-23 9.668477560719951e-07 6.264892910589033e-08  3.922587934767629e-23 9.669021407395008e-07 6.108682951255065e-08  3.92581712964138e-23 9.669650816398187e-07 6.085891039626594e-08  3.928752082616382e-23 9.669979618946889e-07 6.062743358864469e-08  3.866487766878145e-23 9.666630927441427e-07 6.590083542124267e-08  3.869495749256689e-23 9.668133283430412e-07 6.578013605375812e-08  3.868709894984608e-23 9.666115733173999e-07 6.564916448825505e-08  3.909624668692981e-23 9.660782384367327e-07 6.143055441504827e-08  3.912339070267397e-23 9.66104494315115e-07 6.12123187350492e-08  3.910223091242643e-23 9.668972316179277e-07 6.219564648480996e-08  3.870551014890758e-23 9.66501501713674e-07 6.537325954606356e-08  3.948278710737602e-23 9.669257391430089e-07 5.879640853435417e-08  3.950974500018909e-23 9.668886690876813e-07 5.851652336697134e-08  3.871875334774141e-23 9.668357501885647e-07 6.558822389028771e-08  3.930492689876756e-23 9.668034759547768e-07 6.02761676845483e-08  3.997192400078078e-23 9.665911933307832e-07 5.405610926038679e-08  3.994385396030383e-23 9.66574782674368e-07 5.429253105163609e-08  3.998637589247027e-23 9.667815659250844e-07 5.411631078663287e-08  3.912189067254917e-23 9.666388365611337e-07 6.17601720512901e-08  3.957111068873735e-23 9.665599299406498e-07 5.763505123578125e-08  3.958704774326713e-23 9.664966586518331e-07 5.742823172128107e-08  3.968822998851125e-23 9.663183399827387e-07 5.633854440823093e-08  3.978180576963444e-23 9.663315925433807e-07 5.550894126287829e-08  3.881957625183489e-23 9.666717904363219e-07 6.451613215143329e-08  3.920791796816976e-23 9.661914700443972e-07 6.053794054155229e-08  3.972694626851096e-23 9.664534435256335e-07 5.612492270276587e-08  3.906459374940049e-23 9.660442296052332e-07 6.168164989887324e-08  3.965046306240209e-23 9.65890011789029e-07 5.62503904432255e-08  3.969634637012826e-23 9.660580464665464e-07 5.600514502558667e-08  3.966332419931826e-23 9.658248322580738e-07 5.606936808942381e-08  3.891663305520795e-23 9.662917982114517e-07 6.326192995955378e-08  3.988430758325711e-23 9.664647984187129e-07 5.47188928789388e-08  3.991899430973904e-23 9.6669481309856e-07 5.463647730186847e-08  3.99008439690801e-23 9.664147053455647e-07 5.451985328372964e-08  3.933361023123939e-23 9.668129963332746e-07 6.002733157218228e-08  3.900669118847487e-23 9.668645925475878e-07 6.302355274484473e-08  3.962992934119612e-23 9.661875590300828e-07 5.673288900262276e-08  3.924733162641006e-23 9.662819574600376e-07 6.027342128406415e-08  3.969245488039203e-23 9.667669435092335e-07 5.674909349172577e-08  3.950098524277548e-23 9.664864031936661e-07 5.819315835340369e-08  3.916893577756611e-23 9.661026095063213e-07 6.080020036162992e-08  3.944875203138782e-23 9.66870838179281e-07 5.904806828170214e-08  3.973461437664064e-23 9.667548228772653e-07 5.635723387656681e-08  3.897717582852082e-23 9.662556725469098e-07 6.26804834723482e-08  3.895755212064213e-23 9.66828835146836e-07 6.343040071925471e-08  3.973599692080847e-23 9.663347969980335e-07 5.59247551465369e-08  3.970338370118747e-23 9.66248361888629e-07 5.613207380459733e-08  3.894831458004951e-23 9.662813676976877e-07 6.296613763884784e-08  3.958387118355909e-23 9.667686798141509e-07 5.772886478983378e-08  3.953812648345831e-23 9.664932364898851e-07 5.786545309422417e-08  3.963725167582598e-23 9.665450052998474e-07 5.702438154536632e-08  3.988096892745312e-23 9.665722093545793e-07 5.485637575287468e-08  3.913948038630977e-23 9.669853846129062e-07 6.194828604638696e-08  3.966948768588062e-23 9.660940607361834e-07 5.628308081596234e-08  3.879385116464716e-23 9.66064162634585e-07 6.414021533584194e-08  3.88217185562763e-23 9.660791732008826e-07 6.390421875302597e-08  3.966372697470812e-23 9.667421408173389e-07 5.698304877049756e-08  3.965027575971678e-23 9.661540247187416e-07 5.651609044554563e-08  3.985292112713542e-23 9.665322290963814e-07 5.506902762079554e-08  3.982181992298862e-23 9.662907722663317e-07 5.510770553355842e-08  3.93988081602567e-23 9.66312204783533e-07 5.893928928478527e-08  3.942619320776914e-23 9.662652802574851e-07 5.864570217919234e-08  3.900386017942265e-23 9.662243804815322e-07 6
[...]
<PointData  Tensors="f_71"> 
<DataArray  type="Float64"  Name="f_71"  NumberOfComponents="9" format="ascii">-1.0826735793501217e+09 8.5345957929165700e-08 4.7449714067784777e-08 8.5345957929165700e-08 -1.6682588668481269e+08 -2.8613127293624539e+07 4.7449714067784777e-08 -2.8613127293624539e+07 -4.0842602232636017e+08  -1.0829276625531809e+09 8.5234528189506407e-08 4.7379563980018617e-08 8.5234528189506407e-08 -1.6732071829713586e+08 -2.7467086074764319e+07 4.7379563980018617e-08 -2.7467086074764319e+07 -4.0729179736445117e+08  -1.0825692334571655e+09 8.5327439111506115e-08 4.7328745569094757e-08 8.5327439111506115e-08 -1.6666779486379451e+08 -2.8905332525337152e+07 4.7328745569094757e-08 -2.8905332525337152e+07 -4.0696164159818190e+08  -1.0827879978549297e+09 8.5239993891357389e-08 4.7236366631337428e-08 8.5239993891357389e-08 -1.6710286899606529e+08 -2.8365088015578549e+07 4.7236366631337428e-08 -2.8365088015578549e+07 -4.0588657463041151e+08  -1.0822832016922576e+09 8.5349334066954129e-08 4.7250969956019913e-08 8.5349334066954129e-08 -1.6617502123017499e+08 -2.9697513353589002e+07 4.7250969956019913e-08 -2.9697513353589002e+07 -4.0618399891272700e+08  -1.0832929795002456e+09 8.5205582407543968e-08 4.7502944996430707e-08 8.5205582407543968e-08 -1.6795248743784091e+08 -2.6423955385909818e+07 4.7502944996430707e-08 -2.6423955385909818e+07 -4.0862196897367436e+08  -1.0831351418516371e+09 8.5295871404060266e-08 4.7645756661423984e-08 8.5295871404060266e-08 -1.6762129762253332e+08 -2.6789325503391739e+07 4.7645756661423984e-08 -2.6789325503391739e+07 -4.1030800667124897e+08  -1.0835624277945054e+09 8.5178179547305029e-08 4.7585836726352875e-08 8.5178179547305029e-08 -1.6842117599524322e+08 -2.5710386783748705e+07 4.7585836726352875e-08 -2.5710386783748705e+07 -4.0958187608968973e+08  -1.0841550233508549e+09 8.5235167399915957e-08 4.8293294688865375e-08 8.5235167399915957e-08 -1.6932443959510139e+08 -2.2150193617599376e+07 4.8293294688865375e-08 -2.2150193617599376e+07 -4.1668993072525054e+08  -1.0838435622817993e+09 8.5300104265322453e-08 4.8248218045562617e-08 8.5300104265322453e-08 -1.6875429457970136e+08 -2.3286149995880708e+07 4.8248218045562617e-08 -2.3286149995880708e+07 -4.1639213310173583e+08  -1.0838672186828768e+09 8.5324672271118497e-08 4.8353913067679315e-08 8.5324672271118497e-08 -1.6878049504104835e+08 -2.2963797006603964e+07 4.8353913067679315e-08 -2.2963797006603964e+07 -4.1749085119256073e+08  -1.0840471920278621e+09 8.5316128538534120e-08 4.8422002088919218e-08 8.5316128538534120e-08 -1.6909227182444727e+08 -2.2515439016983684e+07 4.8422002088919218e-08 -2.2515439016983684e+07 -4.1827823874161100e+08  -1.0799034222168875e+09 8.5505423525343449e-08 4.6257342952436257e-08 8.5505423525343449e-08 -1.6206197727039757e+08 -3.7171394299849577e+07 4.6257342952436257e-08 -3.7171394299849577e+07 -3.9558378312683582e+08  -1.0802290449966605e+09 8.5483933528449398e-08 4.6386545365740529e-08 8.5483933528449398e-08 -1.6263676786065257e+08 -3.6165012131416060e+07 4.6386545365740529e-08 -3.6165012131416060e+07 -3.9695423351917619e+08  -1.0805273204510369e+09 8.5369826223362370e-08 4.6290042952896627e-08 8.5369826223362370e-08 -1.6321262734517974e+08 -3.5397696251207575e+07 4.6290042952896627e-08 -3.5397696251207575e+07 -3.9585541858376002e+08  -1.0840486471061029e+09 8.5172895515220543e-08 4.7956855488227138e-08 8.5172895515220543e-08 -1.6922724776742834e+08 -2.3461176030595146e+07 4.7956855488227138e-08 -2.3461176030595146e+07 -4.1334450619016939e+08  -1.0843039831454682e+09 8.5104513569597139e-08 4.7959358165705837e-08 8.5104513569597139e-08 -1.6970051169012639e+08 -2.2522475258154385e+07 4.7959358165705837e-08 -2.2522475258154385e+07 -4.1317880437218797e+08  -1.0840591433844528e+09 8.5126200221099702e-08 4.7849887634833772e-08 8.5126200221099702e-08 -1.6926795914066789e+08 -2.3313195684279788e+07 4.7849887634833772e-08 -2.3313195684279788e+07 -4.1195681431538278e+08  -1.0852652129803212e+09 8.5063750571573352e-08 4.8726359693967398e-08 8.5063750571573352e-08 -1.7126907060061520e+08 -1.7393466604072232e+07 4.8726359693967398e-08 -1.7393466604072232e+07 -4.2066111005983466e+08  -1.0850482065681534e+09 8.5097466759043794e-08 4.8640561550902481e-08 8.5097466759043794e-08 -1.7088209382061836e+08 -1.8311110454069514e+07 4.8640561550902481e-08 -1.8311110454069514e+07 -4.1985185375201154e+08  -1.0850243469012828e+09 8.5148185833867883e-08 4.8755252025323502e-08 8.5148185833867883e-08 -1.7081236725492033e+08 -1.8362570100069281e+07 4.8755252025323502e-08 -1.8362570100069281e+07 -4.2121776383060724e+08  -1.0801377912655818e+09 8.5369456096820804e-08 4.6136400816290362e-08 8.5369456096820804e-08 -1.6255976482340577e+08 -3.5967804161907747e+07 4.6136400816290362e-08 -3.5967804161907747e+07 -3.9380939476234096e+08  -1.0838985929270055e+09 8.5215830546138541e-08 4.7932878304026546e-08 8.5215830546138541e-08 -1.6894722327197760e+08 -2.4210932594618313e+07 4.7932878304026546e-08 -2.4210932594618313e+07 -4.1327917592972225e+08  -1.0836241993189571e+09 8.5215199064547768e-08 4.7722912549404643e-08 8.5215199064547768e-08 -1.6849957901213920e+08 -2.5282868942553412e+07 4.7722912549404643e-08 -2.5282868942553412e+07 -4.1098186420476919e+08  -1.0844920269750991e+09 8.5096255710032854e-08 4.8066002402935243e-08 8.5096255710032854e-08 -1.7000591914026278e+08 -2.1812592777445130e+07 4.8066002402935243e-08 -2.1812592777445130e+07 -4.1428335975899094e+08  -1.0841574398703296e+09 8.5184163699995200e-08 4.8055225241939137e-08 8.5184163699995200e-08 -1.6938299503294551e+08 -2.2997939570884254e+07 4.8055225241939137e-08 -2.2997939570884254e+07 -4.1435582383266634e+08  -1.0850860315054400e+09 8.5209844874722054e-08 4.9056846507518032e-08 8.5209844874722054e-08 -1.7081044431879583e+08 -1.7239099703997064e+07 4.9056846507518032e-08 -1.7239099703997064e+07 -4.2418675422889960e+08  -1.0849900459792144e+09 8.5163506874970028e-08 4.9047605068901855e-08 8.5163506874970028e-08 -1.7067230589400783e+08 -1.6529028041989392e+07 4.9047605068901855e-08 -1.6529028041989392e+07 -4.2362085968943930e+08  -1.0852668546344383e+09 8.5114463512263030e-08 4.8943367817337386e-08 8.5114463512263030e-08 -1.7120475661864200e+08 -1.6718649856838144e+07 4.8943367817337386e-08 -1.6718649856838144e+07 -4.2285119488738543e+08  -1.0842171248984594e+09 8.5199324032387408e-08 4.8168034237501821e-08 8.5199324032387408e-08 -1.6947632617660689e+08 -2.2583784308669880e+07 4.8168034237501821e-08 -2.2583784308669880e+07 -4.1557065437296206e+08  -1.0837834317956884e+09 8.5200360527756362e-08 4.7815994162793189e-08 8.5200360527756362e-08 -1.6876377674300843e+08 -2.4447906746448576e+07 4.7815994162793189e-08 -2.4447906746448576e+07 -4.1178814556363779e+08  -1.0850664291034143e+09 8.5142277784748571e-08 4.8852303355757961e-08 8.5142277784748571e-08 -1.7085128201545307e+08 -1.7722873711807732e+07 4.8852303355757961e-08 -1.7722873711807732e+07 -4.2210670626333416e+08  -1.0840770235508766e+09 8.5103812270569427e-08 4.7730480723099433e-08 8.5103812270569427e-08 -1.6932701220396230e+08 -2.3891209714656428e+07 4.7730480723099433e-08 -2.3891209714656428e+07 -4.1092690060790759e+08  -1.0813805004949679e+09 8.5242903619541189e-08 4.6506235099465172e-08 8.5242903619541189e-08 -1.6471456989311317e+08 -3.2461358270287752e+07 4.6506235099465172e-08 -3.2461358270287752e+07 -3.9783702321618760e+08  -1.0812442754077940e+09 8.5191042506592888e-08 4.6342505614128286e-08 8.5191042506592888e-08 -1.6453854409080899e+08 -3.2425517445927914e+07 4.6342505614128286e-08 -3.2425517445927914e+07 -3.9564123645821255e+08  -1.0809420566202788e+09 8.5305889969666183e-08 4.6407781673237424e-08 8.5305889969666183e-08 -1.6395640511706865e+08 -3.3574506211928561e+07 4.6407781673237424e-08 -3.3574506211928561e+07 -3.9663973965873986e+08  -1.0859279745015965e+09 8.4975551679209984e-08 4.9631178318960116e-08 8.4975551679209984e-08 -1.7226435509128410e+08 -1.0331460735165661e+07 4.9631178318960116e-08 -1.0331460735165661e+07 -4.2838880198726982e+08  -1.0860491210422676e+09 8.4944018525131518e-08 4.9520346220913724e-08 8.4944018525131518e-08 -1.7252913448808718e+08 -1.0728971752433168e+07 4.9520346220913724e-08 -1.0728971752433168e+07 -4.2747022818282503e+08  -1.0857692615692439e+09 8.5024303717355824e-08 4.9618173566999938e-08 8.5024303717355824e-08 -1.7197555364720878e+08 -1.1067371115381498e+07 4.9618173566999938e-08 -1.1067371115381498e+07 -4.2842649578669113e+08  -1.0842018372192290e+09 8.5247809030259530e-08 4.8403123157624331e-08 8.5247809030259530e-08 -1.6938816096590534e+08 -2.1625240044710044e+07 4.8403123157624331e-08 -2.1625240044710044e+07 -4.1775661569284636e+08  -1.0861247543073299e+09 8.4935892425611430e-08 4.9420062881306430e-08 8.4935892425611430e-08 -1.7267208198811075e+08 -1.1418833990151901e+07 4.9420062881306430e-08 -1.1418833990151901e+07 -4.2677358684251058e+08  -1.0858030286291089e+09 8.5015865282620707e-08 4.9521703689614057e-08 8.5015865282620707e-08 -1.7206513248085299e+08 -1.1659503008137394e+07 4.9521703689614057e-08 -1.1659503008137394e+07 -4.2766549733332735e+08  -1.0846046138900349e+09 8.5211254230492014e-08 4.8596877882864385e-08 8.5211254230492014e-08 -1.7006886717653465e+08 -2.0051466830885164e+07 4.8596877882864385e-08 -2.0051466830885164e+07 -4.1969871140352762e+08  -1.0849011593798907e+09 8.5132061648122871e-08 4.8603143651036013e-08 8.5132061648122871e-08 -1.7061571791303813e+08 -1.8964712097964376e+07 4.8603143651036013e-08 -1.8964712097964376e+07 -4.1955730106786287e+08  -1.0848358306535029e+09 8.5113896141039241e-08 4.8478803676641517e-08 8.5113896141039241e-08 -1.7052112774207792e+08 -1.9456486950815395e+07 4.8478803676641517e-08 -1.9456486950815395e+07 -4.1826661200888461e+08  -1.0854186199529948e+09 8.5083782714551263e-08 4.9021463025031397e-08 8.5083782714551263e-08 -1.7145737824902725e+08 -1.5772553978022685e+07 4.9021463025031397e-08 -1.5772553978022685e+07 -4.2343435285524678e+08  -1.0852081954542248e+09 8.5153444547612125e-08 4.9140828931309484e-08 8.5153444547612125e-08 -1.7104365769470978e+08 -1.5959588175819980e+07 4.9140828931309484e-08 -1.5959588175819980e+07 -4.2470528690752167e+08  -1.0846916386624887e+09 8.5202047917118514e-08 4.8708433618553159e-08 8.5202047917118514e-08 -1.7019700009709039e+08 -1.9303705223326474e+07 4.8708433618553159e-08 -1.9303705223326474e+07 -4.2076317153203332e+08  -1.0829009105876215e+09 8.5291437166594906e-08 4.7511785959022042e-08 8.5291437166594906e-08 -1.6723422552848682e+08 -2.7617017700506061e+07 4.7511785959022042e-08 -2.7617017700506061e+07 -4.0896511830197585e+08  -1.0808146852708580e+09 8.5381898731880278e-08 4.6381772601925625e-08 8.5381898731880278e-08 -1.6371018872637337e+08 -3.4888407033282936e+07 4.6381772601925625e-08 -3.4888407033282936e+07 -3.9687321021809632e+08  -1.0807394688211181e+09 8.5293823032536907e-08 4.6275567594133991e-08 8.5293823032536907e-08 -1.6362766059062630e+08 -3.3993762287953392e+07 4.6275567594133991e-08 -3.3993762287953392e+07 -3.9500440387297535e+08  -1.0822692623560684e+09 8.5152632247697511e-08 4.6760533266864279e-08 8.5152632247697511e-08 -1.6628516516845638e+08 -2.9680711877071332e+07 4.6760533266864279e-08 -2.9680711877071332e+07 -4.0030492725827718e+08  -1.0818329965890417e+09 8.5238442008589418e-08 4.6726315724719592e-08 8.5238442008589418e-08 -1.6550652823572314e+08 -3.0892134988744643e+07 4.6726315724719592e-08 -3.0892134988744643e+07 -3.9999168247091562e+08  -1.0819713285409520e+09 8.5269572552584460e-08 4.6844099099391409e-08 8.5269572552584460e-08 -1.6571085854410133e+08 -3.0891991228636820e+07 4.6844099099391409e-08 -3.0891991228636820e+07 -4.0162666504824865e+08  -1.0831750095994589e+09 8.5341742186802940e-08 4.7810967353914747e-08 8.5341742186802940e-08 -1.6763374548292947e+08 -2.6370360012713850e+07 4.7810967353914747e-08 -2.6370360012713850e+07 -4.1204500682422698e+08  -1.0837448814625306e+09 8.5260151406827518e-08 4.8030218596375964e-08 8.5260151406827518e-08 -1.6865036597534552e+08 -2.4057828316215295e+07 4.8030218596375964e-08 -2.4057828316215295e+07 -4.1412437154925722e+08  -1.0838043498429282e+09 8.5097550787309469e-08 4.7594059460188029e-08 8.5097550787309469e-08 -1.6887243300958389e+08 -2.4388965477402840e+07 4.7594059460188029e-08 -2.4388965477402840e+07 -4.0920453742602623e+08  -1.0822623537606547e+09 8.5260774447081167e-08 4.6980323224916677e-08 8.5260774447081167e-08 -1.6620723176662451e+08 -3.0035430752818335e+07 4.6980323224916677e-08 -3.0035430752818335e+07 -4.0312194057969624e+08  -1.0819947779944727e+09 8.5363982504602365e-08 4.7065130376849663e-08 8.5363982504602365e-08 -1.6568385398363775e+08 -3.0874177642837636e+07 4.7065130376849663e-08 -3.0874177642837636e+07 -4.0422067662299550e+08  -1.0824034775660741e+09 8.5272352754135063e-08 4.7118557832389238e-08 8.5272352754135063e-08 -1.6642902189946991e+08 -2.9398503413827769e+07 4.7118557832389238e-08 -2.9398503413827769e+07 -4.0458650602607369e+08  -1.0817723183277698e+09 8.5370118657399060e-08 4.6961434923149153e-08 8.5370118657399060e-08 -1.6529878230347008e+08 -3.1579848930076107e+07 4.6961434923149153e-08 -3.1579848930076107e+07 -4.0313663162344408e+08  -1.0826052677544055e+09 8.5165275303107630e-08 4.7007334951339376e-08 8.5165275303107630e-08 -1.6684286165497085e+08 -2.8484547797921035e+07 4.7007334951339376e-08 -2.8484547797921035e+07 -4.0299470099525911e+08  -1.0817020376943910e+09 8.5206925767347630e-08 4.6585734032128534e-08 8.5206925767347630e-08 -1.6529492364487010e+08 -3.1387391586007964e+07 4.6585734032128534e-08 -3.1387391586007964e+07 -3.9850445012171084e+08  -1.0815304647127357e+09 8.5328498331500560e-08 4.6735768437501247e-08 8.5328498331500560e-08 -1.6491899844074273e+08 -3.2303116796605498e+07 4.6735768437501247e-08 -3.2303116796605498e+07 -4.0059224860632926e+08  -1.0844673631108322e+09 8.5124387053018177e-08 4.8187057693076313e-08 8.5124387053018177e-08 -1.6993239919697762e+08 -2.1418187598866835e+07 4.8187057693076313e-08 -2.1418187598866835e+07 -4.1546996926106793e+08  -1.0846028704951475e+09 8.5154211254514680e-08 4.8328986743819446e-08 8.5154211254514680e-08 -1.7013194537539697e+08 -2.1021943713970304e+07 4.8328986743819446e-08 -2.1021943713970304e+07 -4.1708397738701522e+08  -1.0823617088498108e+09 8.5116907008242571e-08 4.6670586036230506e-08 8.5116907008242571e-08 -1.6647918541428080e+08 -2.9967443710596818e+07 4.6670586036230506e-08 -2.9967443710596818e+07 -3.9958991584289294e+08  -1.0851696469809613e+09 8.5169790632980330e-08 4.9450967449015146e-08 8.5169790632980330e-08 -1.7089704481696093e+08 -1.4012100036618190e+07 4.9450967449015146e-08 -1.4012100036618190e+07 -4.2725173722415686e+08  -1.0855443924950256e+09 8.5076716252902945e-08 4.9444431603873053e-08 8.5076716252902945e-08 -1.7160446102828676e+08 -1.3006794374388911e+07 4.9444431603873053e-08 -1.3006794374388911e+07 -4.2717306987769085e+08  -1.0854917736801546e+09 8.5098153763947338e-08 4.9378153416620480e-08 8.5098153763947338e-08 -1.7151839539861566e+08 -1.3710517064663697e+07 4.9378153416620480e-08 -1.3710517064663697e+07 -4.2667523373341942e+08  -1.0786209862642257e+09 8.5513151570436269e-08 4.5641984651568277e-08 8.5513151570436269e-08 -1.5989782799919471e+08 -4.0894504829553738e+07 4.5641984651568277e-08 -4.0894504829553738e+07 -3.8895396086008769e+08  -1.0790700769614000e+09 8.5412325621183019e-08 4.5689700663509036e-08 8.5412325621183019e-08 -1.6071535592754415e+08 -3.9064191860524021e+07 4.5689700663509036e-08 -3.9064191860524021e+07 -3.8898671898171306e+08  -1.0788129947839541e+09 8.5380242325828301e-08 4.5484623321319595e-08 8.5380242325828301e-08 -1.6026798056957898e+08 -3.9839031222294055e+07 4.5484623321319595e-08 -3.9839031222294055e+07 -3.8670463327043778e+08  -1.0838306457852952e+09 8.5285156152555460e-08 4.8141095870591032e-08 8.5285156152555460e-08 -1.6875818586321169e+08 -2.3710948900151931e+07 4.8141095870591032e-08 -2.3710948900151931e+07 -4.1531507981102151e+08  -1.0847807679835596e+09 8.5201136378180120e-08 4.8961071431539997e-08 8.5201136378180120e-08 -1.7031986518256846e+08 -1.7612955713676132e+07 4.8961071431539997e-08 -1.7612955713676132e+07 -4.2294906820924449e+08  -1.0824976924071205e+09 8.5151084434689043e-08 4.6890929749332058e-08 8.5151084434689043e-08 -1.6667340964057922e+08 -2.9093275612426467e+07 4.6890929749332058e-08 -2.9093275612426467e+07 -4.0187356760818130e+08  -1.0852781532410452e+09 8.5024754567962434e-08 4.8514540736666301e-08 8.5024754567962434e-08 -1.7133839933326721e+08 -1.8216097300155740e+07 4.8514540736666301e-08 -1.8216097300155740e+07 -4.1861315065443879e+08  -1.0827307540859964e+09 8.5395921880637905e-08 4.7641544111693402e-08 8.5395921880637905e-08 -1.6687055599509162e+08 -2.8092654135176729e+07 4.7641544111693402e-08 -2.8092654135176729e+07 -4.1044641013901061e+08  -1.0844740813800642e+09 8.5202038774814087e-08 4.8466224624907726e-08 8.5202038774814087e-08 -1.6985856374718624e+08 -2.0666598496169440e+07 4.8466224624907726e-08 -2.0666598496169440e+07 -4.1831512525131375e+08  -1.0845594074870684e+09 8.5248404011949365e-08 4.8829618088477791e-08 8.5248404011949365e-08 -1.6993662675276977e+08 -1.8981210406009059e+07 4.8829618088477791e-08 -1.8981210406009059e+07 -4.2180092916617692e+08  -1.0860648431572235e+09 8.4932582263573151e-08 4.9856295538610428e-08 8.4932582263573151e-08 -1.7246742853667352e+08 -8.1227047755484805e+06 4.9856295538610428e-08 -8.1227047755484805e+06 -4.2999965669248617e+08  -1.0858520291272185e+09 8.4963145585643266e-08 4.9966794519884855e-08 8.4963145585643266e-08 -1.7206478771151415e+08 -7.6102084201068254e+06 4.9966794519884855e-08 -7.6102084201068254e+06 -4.3073962049558198e+08  -1.0862307534123433e+09 8.4866491161447294e-08 4.9838890123688792e-08 8.4866491161447294e-08 -1.7279938968396568e+08 -7.3633950767221991e+06 4.9838890123688792e-08 -7.3633950767221991e+06 -4.2962738909992772e+08  -1.0808872438832252e+09 8.5379802431796919e-08 4.6497077895869490e-08 8.5379802431796919e-08 -1.6380764695693436e+08 -3.4417456038054205e+07 4.6497077895869490e-08 -3.4417456038054205e+07 -3.9820018462237978e+08  -1.0826313689208510e+09 8.5371544497310347e-08 4.7537919570085350e-08 8.5371544497310347e-08 -1.6672278496717489e+08 -2.8565103578504592e+07 4.7537919570085350e-08 -2.8565103578504592e+07 -4.0946636397170156e+08  -1.0835279968149166e+09 8.5383325515732704e-08 4.8225530381203664e-08 8.5383325515732704e-08 -1.6816974101286790e+08 -2.4452317627890728e+07 4.8225530381203664e-08 -2.4452317627890728e+07 -4.1631925186677688e+08  -1.0836068971140749e+09 8.5394586570099123e-08 4.8339374444098091e-08 8.5394586570099123e-08 -1.6828963387533635e+08 -2.4013085342054039e+07 4.8339374444098091e-08 -2.4013085342054039e+07 -4.1756684224779975e+08  -1.0836282597150009e+09 8.5404141299085240e-08 4.8433590866813295e-08 8.5404141299085240e-08 -1.6830616307001579e+08 -2.3489422191625245e+07 4.8433590866813295e-08 -2.3489422191625245e+07 -4.1840195757045376e+08  -1.0797926074957652e+09 8.5351296904390243e-08 4.5918002460066807e-08 8.5351296904390243e-08 -1.6198967369508865e+08 -3.7068409021123223e+07 4.5918002460066807e-08 -3.7068409021123223e+07 -3.9148474408979177e+08  -1.0795997080753872e+09 8.5424552793828414e-08 4.5988517204404685e-08 8.5424552793828414e-08 -1.6160610579444933e+08 -3.7442669066471532e+07 4.5988517204404685e-08 -3.7442669066471532e+07 -3.9219678577010620e+08  -1.0802162863938689e+09 8.5315513749136930e-08 4.6027930307281316e-08 8.5315513749136930e-08 -1.6271912287557441e+08 -3.5952820664778955e+07 4.6027930307281316e-08 -3.5952820664778955e+07 -3.9263892254583979e+08  -1.0844207104071233e+09 8.5032583011722394e-08 4.7861781826218385e-08 8.5032583011722394e-08 -1.6992552430000865e+08 -2.2094233330327962e+07 4.7861781826218385e-08 -2.2094233330327962e+07 -4.1192768629453343e+08  -1.0844752776948802e+09 8.5048052081526496e-08 4.7958869110712759e-08 8.5048052081526496e-08 -1.7001478649824601e+08 -2.1682065806384172e+07 4.7958869110712759e-08 -2.1682065806384172e+07 -4.1290444619985539e+08  -1.0828634416062958e+09 8.5418216523122791e-08 4.7769736754686198e-08 8.54182165231