<?xml version="1.0"?>
<VTKFile type="UnstructuredGrid"  version="0.1"  >
<UnstructuredGrid>
<Piece  NumberOfPoints="10049" NumberOfCells="19698">
<Points>
<DataArray  type="Float64"  NumberOfComponents="3"  format="ascii">3.875499574247055e-23 9.29896634840042e-07 2.832266607097074e-08  3.847840040459637e-23 9.292781534749271e-07 3.019553402702106e-08  3.869596087308822e-23 9.307906618468209e-07 2.974843190925393e-08  3.822619727987443e-23 9.289588210231773e-07 3.214784537230994e-08  3.846725948954085e-23 9.304594087353973e-07 3.147713772927643e-08  3.896563444806269e-23 9.318448912844064e-07 2.837365772330594e-08  3.824928819014011e-23 9.303577470673111e-07 3.333878698670745e-08  3.866378436864314e-23 9.317578673327725e-07 3.10054575820634e-08  3.849093502564464e-23 9.316568417346818e-07 3.246132045741128e-08  3.884101871320748e-23 9.320469779537818e-07 2.969818314679827e-08  3.949886498170425e-23 9.335139916493695e-07 2.523984442304769e-08  3.922977892304383e-23 9.324638142699333e-07 2.661337879063879e-08  3.936274806362633e-23 9.337852478658246e-07 2.673713284257187e-08  3.900452492426054e-23 9.330108463907857e-07 2.918931856145945e-08  3.884901675556628e-23 9.328900535735447e-07 3.046921880538753e-08  3.957500343297657e-23 9.347286849597672e-07 2.576874353188823e-08  3.916858809167488e-23 9.332325037385929e-07 2.793322627000184e-08  3.80180333217813e-23 9.304594161508549e-07 3.552341474818792e-08  3.831040448401863e-23 9.316762524954711e-07 3.410680577819239e-08  3.965590912550287e-23 9.344300709030446e-07 2.474139578173848e-08  3.9446451719463e-23 9.347127553296636e-07 2.691070479993964e-08  3.901398923690373e-23 9.338362385819245e-07 2.992946380281189e-08  3.818143977075471e-23 9.319507081118266e-07 3.554287226374647e-08  3.868786252260247e-23 9.327527731239027e-07 3.178348664279557e-08  3.796659277209406e-23 9.316043967976421e-07 3.713173067578155e-08  3.775103060719324e-23 9.314655006894149e-07 3.893444593859938e-08  3.757406067509398e-23 9.31550826968658e-07 4.061377565835848e-08  3.777901601996191e-23 9.326243451412419e-07 3.984122020139273e-08  3.977661246410393e-23 9.35411003176174e-07 2.463512903337564e-08  3.796238305711783e-23 9.327027257812419e-07 3.826797740097794e-08  3.957374089735693e-23 9.354890621779031e-07 2.654049265991637e-08  3.915456212375609e-23 9.340322324024164e-07 2.885928962161047e-08  3.930534936626116e-23 9.343348650813161e-07 2.780375156219403e-08  3.822186856601342e-23 9.331669216333257e-07 3.639493557072119e-08  3.838321859723302e-23 9.329556761883546e-07 3.473037824479646e-08  3.88668495470353e-23 9.33740892905536e-07 3.115943463134918e-08  3.79619500140237e-23 9.336403573041074e-07 3.920950942927813e-08  3.852992338897636e-23 9.328153042441853e-07 3.326860700976968e-08  3.943643832544897e-23 9.353481584282166e-07 2.763630053359337e-08  3.970045357480362e-23 9.357252048218529e-07 2.563530897000222e-08  3.915334219735804e-23 9.347092776543421e-07 2.954732299367946e-08  3.968145895771154e-23 9.362026584016326e-07 2.628385085069769e-08  3.983208392795185e-23 9.362084158151501e-07 2.493289914452126e-08  3.902597476474296e-23 9.346118497545047e-07 3.05971189379709e-08  3.873212842911625e-23 9.337888308240259e-07 3.242083250275742e-08  3.958480594800768e-23 9.361312889671999e-07 2.708305433323818e-08  3.978401686286721e-23 9.364595525950693e-07 2.56169855572485e-08  3.991653786263741e-23 9.362067504352367e-07 2.417054034704821e-08  3.928408901751444e-23 9.349656457059822e-07 2.862602838424718e-08  3.890307212092321e-23 9.346285008606525e-07 3.172077864593762e-08  3.814587207400059e-23 9.339341685394531e-07 3.784669802306954e-08  3.842872729440416e-23 9.339336131008683e-07 3.52984092540661e-08  3.858424268118089e-23 9.340113495875557e-07 3.397538766487739e-08  3.994419559334895e-23 9.368099529701452e-07 2.452462419050398e-08  3.91571874155517e-23 9.353900436786569e-07 3.019345437154612e-08  3.837479495280545e-23 9.34610995357734e-07 3.646157085798612e-08  3.949935869562859e-23 9.361121390844166e-07 2.78335448784034e-08  3.969656949768672e-23 9.367902441720417e-07 2.673533297670355e-08  3.880319234883061e-23 9.347868120227318e-07 3.277872681677312e-08  3.904955075192258e-23 9.353589357665879e-07 3.113185133590007e-08  3.797682897818549e-23 9.344551259662505e-07 3.98902602965118e-08  3.811020514802867e-23 9.345846934120289e-07 3.881848200467853e-08  3.856625632208515e-23 9.348680596186085e-07 3.499410441617285e-08  3.960584851349405e-23 9.368081020850852e-07 2.757033287095677e-08  3.976817491470075e-23 9.367817911795091e-07 2.608191572540691e-08  3.938799603615719e-23 9.357694432314436e-07 2.849391468882715e-08  3.92755424038451e-23 9.355335202631807e-07 2.927088399371867e-08  3.89535152023162e-23 9.354306596383586e-07 3.2068586538514e-08  3.810879883206638e-23 9.352131930131312e-07 3.945964857386831e-08  3.948150143778173e-23 9.364889300830208e-07 2.837117975657759e-08  3.826627564385271e-23 9.349584165404378e-07 3.778644707941409e-08  3.853663972915738e-23 9.355639714661688e-07 3.595677881748008e-08  3.870754349523798e-23 9.350094864679085e-07 3.386292954474622e-08  3.917413374533047e-23 9.360324786104136e-07 3.068325033434887e-08  3.981304517378656e-23 9.37322636751574e-07 2.621860593327405e-08  3.987561955502018e-23 9.367946189337388e-07 2.512696819542544e-08  3.927269753390081e-23 9.360911467563858e-07 2.985413479736578e-08  3.98511426566342e-23 9.370488474692974e-07 2.560166503188469e-08  3.865112630071274e-23 9.357537138877522e-07 3.511531787707218e-08  3.97241433043746e-23 9.373583193209808e-07 2.705504535459329e-08  3.99493060258395e-23 9.373267291131927e-07 2.499536964983112e-08  3.908494718115105e-23 9.360450163431798e-07 3.149910922152477e-08  3.887996411013186e-23 9.356787836090304e-07 3.297919985189395e-08  3.84304570017365e-23 9.357346534229927e-07 3.708386975759576e-08  3.937651724383484e-23 9.362454247076841e-07 2.907328793471891e-08  3.864991595669314e-23 9.362674740122262e-07 3.563997981129752e-08  3.966858102390816e-23 9.374875108219055e-07 2.768469738672705e-08  3.901553757791619e-23 9.361777350142118e-07 3.225701401908566e-08  3.879585100304603e-23 9.35792060255199e-07 3.385010001351998e-08  3.821897532728375e-23 9.353798893047883e-07 3.863396321991344e-08  3.821380520964545e-23 9.35882376151544e-07 3.918301834640778e-08  3.990418860445622e-23 9.375287722232062e-07 2.560379436410395e-08  3.956380873531408e-23 9.371174107002589e-07 2.825830214482256e-08  3.981914636867714e-23 9.378141531215506e-07 2.665516762517925e-08  3.92790803013569e-23 9.366474544009841e-07 3.035295158369044e-08  3.919668154000187e-23 9.366182415547406e-07 3.106592079931547e-08  3.975735310715897e-23 9.379018126835799e-07 2.729941140630291e-08  3.873335484858572e-23 9.363838243281617e-07 3.500477940236181e-08  3.912309102629147e-23 9.366443953378134e-07 3.175491900263673e-08  3.889209460399989e-23 9.362197769192205e-07 3.341093138675626e-08  3.833188675914829e-23 9.35699832080393e-07 3.793689023057614e-08  3.85770701775949e-23 9.363381254988951e-07 3.636676774517108e-08  3.99966877955388e-23 9.379046813634516e-07 2.514654485936612e-08  3.87592213028415e-23 9.361010264495509e-07 3.448899721625557e-08  3.831663492303966e-23 9.361226557200345e-07 3.849709019704877e-08  3.937436461020893e-23 9.367409555122924e-07 2.958820793931826e-08  3.946658589212061e-23 9.368972700827629e-07 2.891386704808251e-08  3.988637523941392e-23 9.378197138364969e-07 2.605518450572807e-08  3.882830495597143e-23 9.367044350573738e-07 3.447015559509181e-08  3.873144322266896e-23 9.367501765023716e-07 3.538834997210444e-08  3.962733428113343e-23 9.376808444208515e-07 2.824954861645407e-08  3.970816017410323e-23 9.380227299794702e-07 2.786341925215139e-08  3.868892766077323e-23 9.354646460509308e-07 3.448576565808581e-08  3.983533181956969e-23 9.382691586203337e-07 2.696438754274523e-08  3.989711175056889e-23 9.382197818307549e-07 2.635854660471255e-08  3.906621875199202e-23 9.367637907483692e-07 3.238657431987787e-08  3.921785951743452e-23 9.371223693961123e-07 3.1379294378139e-08  3.928798247439034e-23 9.371164604457082e-07 3.074177398210217e-08  3.851941367446682e-23 9.365876067938774e-07 3.71355726521597e-08  3.88589722601269e-23 9.364525407617877e-07 3.394203478037162e-08  3.841777417735256e-23 9.363381142778861e-07 3.780156733882816e-08  3.897496009821391e-23 9.364307919506227e-07 3.287556040043029e-08  3.91569636095766e-23 9.371677713089073e-07 3.197319786680856e-08  3.954254224815214e-23 9.374440857351191e-07 2.877652866699872e-08  3.994493921123302e-23 9.381715352263068e-07 2.587950853221436e-08  3.9945397358335e-23 9.379203460705062e-07 2.562419275417821e-08  3.894936403285675e-23 9.367684472424973e-07 3.34437645531142e-08  3.863053800911251e-23 9.369989529078996e-07 3.65459997419776e-08  3.879880342949828e-23 9.369117302864865e-07 3.49431769514672e-08  3.979223309996083e-23 9.384430662287588e-07 2.752649390631153e-08  3.937469469071498e-23 9.372283475757623e-07 3.007262690189997e-08  3.868938352628647e-23 9.368723086002071e-07 3.588932213585095e-08  3.910638816709019e-23 9.372186168235712e-07 3.247958646934426e-08  4.007960917762119e-23 9.381938812972346e-07 2.468885538225448e-08  4.005518917198258e-23 9.383623473112451e-07 2.507727725285393e-08  3.99626528189905e-23 9.384794883881815e-07 2.602791169949703e-08  3.929822005494952e-23 9.375206382830695e-07 3.105373989148054e-08  3.89194453973005e-23 9.370230440792422e-07 3.396784450174419e-08  3.903346193791989e-23 9.370155441059713e-07 3.293337482877816e-08  3.999725166999751e-23 9.382236369865172e-07 2.546042155282754e-08  3.946726489425812e-23 9.373627728591461e-07 2.937325391691885e-08  3.924543907647381e-23 9.3765238515096e-07 3.166089554936192e-08  3.966821794748265e-23 9.381217268729055e-07 2.832218373943634e-08  3.917269365868031e-23 9.375978421586363e-07 3.226158502997363e-08  3.993611105543375e-23 9.385500409066814e-07 2.633753117092475e-08  4.011440470962432e-23 9.385594233634919e-07 2.474098715858492e-08  3.888662312030607e-23 9.373170563890951e-07
[...]
<PointData  Vectors="f_25"> 
<DataArray  type="Float64"  Name="f_25"  NumberOfComponents="3" format="ascii">0.0000000000000000e+00 5.8444557865049719e-12 -9.3033486047519520e-11  0.0000000000000000e+00 9.0870830964323513e-12 -8.4255850874256040e-11  0.0000000000000000e+00 6.1404354604189952e-12 -9.2200891996778752e-11  0.0000000000000000e+00 1.1693047624880666e-11 -7.6551908898574881e-11  0.0000000000000000e+00 8.4740281709358942e-12 -8.4661804734585371e-11  0.0000000000000000e+00 2.6978053325507816e-12 -1.0193288629514345e-10  0.0000000000000000e+00 1.0297804919624440e-11 -7.7495937361062726e-11  0.0000000000000000e+00 5.5773515547786227e-12 -9.1619147509804344e-11  0.0000000000000000e+00 7.0124881780944313e-12 -8.5596204478411772e-11  0.0000000000000000e+00 3.7072294142105285e-12 -9.7852175700029057e-11  0.0000000000000000e+00 -4.3459365499369921e-12 -1.2218179910398218e-10  0.0000000000000000e+00 -5.4267010393165549e-13 -1.1144390102733011e-10  0.0000000000000000e+00 -2.9490438045660005e-12 -1.1771732352380516e-10  0.0000000000000000e+00 1.2735980092816577e-12 -1.0415898271482349e-10  0.0000000000000000e+00 2.7253713946596349e-12 -9.8452779014731132e-11  0.0000000000000000e+00 -6.0726461331346934e-12 -1.2665403845115810e-10  0.0000000000000000e+00 -4.4425561222836311e-13 -1.1018083418820077e-10  0.0000000000000000e+00 1.1654028309935162e-11 -6.9608228141143434e-11  0.0000000000000000e+00 8.1378784940727020e-12 -7.9151538707913345e-11  0.0000000000000000e+00 -6.8325688987944881e-12 -1.2922798738266092e-10  0.0000000000000000e+00 -4.7615916558185002e-12 -1.2172983456745673e-10  0.0000000000000000e+00 1.4856369258907719e-13 -1.0474799309603680e-10  0.0000000000000000e+00 8.2874775812795319e-12 -7.4170857164267508e-11  0.0000000000000000e+00 4.1131808626620027e-12 -9.2517625347492268e-11  0.0000000000000000e+00 9.9554974739524936e-12 -6.6546708497798849e-11  0.0000000000000000e+00 1.0992392243709366e-11 -5.8697511104670316e-11  0.0000000000000000e+00 1.1308507845758058e-11 -5.1819490338667535e-11  0.0000000000000000e+00 8.3280090790188946e-12 -5.7523505042072861e-11  0.0000000000000000e+00 -9.0042539638805555e-12 -1.3524112689525792e-10  0.0000000000000000e+00 7.6499901287161370e-12 -6.4649225475655842e-11  0.0000000000000000e+00 -6.9235205929223966e-12 -1.2731645861176819e-10  0.0000000000000000e+00 -1.2351462447584237e-12 -1.1014445751308336e-10  0.0000000000000000e+00 -2.9498697605849178e-12 -1.1603762090636468e-10  0.0000000000000000e+00 5.7192161865326601e-12 -7.4196408281137785e-11  0.0000000000000000e+00 5.4719644394587073e-12 -8.0802947384955417e-11  0.0000000000000000e+00 1.3517470562792753e-12 -9.9081056861619642e-11  0.0000000000000000e+00 5.3829350871254084e-12 -6.2730891435192092e-11  0.0000000000000000e+00 5.0096553615253292e-12 -8.6571201375659261e-11  0.0000000000000000e+00 -5.4851965354284426e-12 -1.2171178322767708e-10  0.0000000000000000e+00 -8.4928458855037318e-12 -1.3258930125176639e-10  0.0000000000000000e+00 -2.2319108926109976e-12 -1.1021543387934058e-10  0.0000000000000000e+00 -8.9289296220769701e-12 -1.3217757996524844e-10  0.0000000000000000e+00 -1.0464686235807721e-11 -1.3841211767745489e-10  0.0000000000000000e+00 -1.1906706126761046e-12 -1.0512636104081114e-10  0.0000000000000000e+00 2.1069041858271737e-12 -9.3794247112997844e-11  0.0000000000000000e+00 -7.9465897553630673e-12 -1.2810708731862642e-10  0.0000000000000000e+00 -1.0298017650348043e-11 -1.3663409594819046e-10  0.0000000000000000e+00 -1.1412523998289898e-11 -1.4184736475154470e-10  0.0000000000000000e+00 -3.6351081539916755e-12 -1.1546726167489880e-10  0.0000000000000000e+00 -4.6664739865399241e-13 -1.0013584322119013e-10  0.0000000000000000e+00 4.1740515768210346e-12 -6.9754980293495505e-11  0.0000000000000000e+00 3.2250770302267541e-12 -8.1449145578380586e-11  0.0000000000000000e+00 2.4228388547783174e-12 -8.7686441119872730e-11  0.0000000000000000e+00 -1.2412318074778044e-11 -1.4368955839691296e-10  0.0000000000000000e+00 -3.4733128946063720e-12 -1.1023709371910787e-10  0.0000000000000000e+00 1.7823122488632577e-12 -7.8107994698675281e-11  0.0000000000000000e+00 -7.2404147192048584e-12 -1.2450727549196572e-10  0.0000000000000000e+00 -9.9928989836551702e-12 -1.3306490592589742e-10  0.0000000000000000e+00 -2.7228629436027878e-13 -9.5893378398230457e-11  0.0000000000000000e+00 -2.7679225395904757e-12 -1.0574594476626928e-10  0.0000000000000000e+00 3.1630929713238435e-12 -6.1399525516553425e-11  0.0000000000000000e+00 2.5486415419877069e-12 -6.6822677666613904e-11  0.0000000000000000e+00 5.2902955627071856e-13 -8.5819898446558792e-11  0.0000000000000000e+00 -9.3000674894092946e-12 -1.2912422385737147e-10  0.0000000000000000e+00 -1.0626144165240283e-11 -1.3615139910120963e-10  0.0000000000000000e+00 -5.7713198653261050e-12 -1.1980160174525621e-10  0.0000000000000000e+00 -4.5312441145092483e-12 -1.1512596929806908e-10  0.0000000000000000e+00 -2.4173888412379005e-12 -1.0162064156881270e-10  0.0000000000000000e+00 7.6790206417175188e-13 -6.5195522986693739e-11  0.0000000000000000e+00 -7.7880392224360353e-12 -1.2373823455265191e-10  0.0000000000000000e+00 1.1595504492019247e-12 -7.2728904540716287e-11  0.0000000000000000e+00 -1.1777134737261625e-12 -8.3311499354408364e-11  0.0000000000000000e+00 -3.7540155885932224e-13 -9.1605739505087568e-11  0.0000000000000000e+00 -4.8954556126939098e-12 -1.1061315991462305e-10  0.0000000000000000e+00 -1.1924577210406255e-11 -1.3830970032692747e-10  0.0000000000000000e+00 -1.1687406535703869e-11 -1.4076144598657616e-10  0.0000000000000000e+00 -5.5933066614467501e-12 -1.1483436923105507e-10  0.0000000000000000e+00 -1.1820111569643623e-11 -1.3987684628468231e-10  0.0000000000000000e+00 -2.0429557793764914e-12 -8.8020003863391522e-11  0.0000000000000000e+00 -1.1258069919174383e-11 -1.3434912746911773e-10  0.0000000000000000e+00 -1.3196441268274178e-11 -1.4433548664243461e-10  0.0000000000000000e+00 -4.4581310628242272e-12 -1.0672521143119414e-10  0.0000000000000000e+00 -2.6659666877712513e-12 -9.8179222331934791e-11  0.0000000000000000e+00 -1.3772847071958241e-12 -7.8267669707475968e-11  0.0000000000000000e+00 -6.5776817941966181e-12 -1.1924933014657301e-10  0.0000000000000000e+00 -3.4454081635718141e-12 -8.6992350617565472e-11  0.0000000000000000e+00 -1.1116601513327363e-11 -1.3183025316770090e-10  0.0000000000000000e+00 -4.4586842551624315e-12 -1.0353440525527510e-10  0.0000000000000000e+00 -2.6332525514374107e-12 -9.4356282631748798e-11  0.0000000000000000e+00 7.7225296107306910e-14 -6.9657506736605049e-11  0.0000000000000000e+00 -1.4074087283871867e-12 -6.8117365589488161e-11  0.0000000000000000e+00 -1.3104790968590049e-11 -1.4243483717323376e-10  0.0000000000000000e+00 -9.6198573476202028e-12 -1.2721543454046295e-10  0.0000000000000000e+00 -1.2899873594712004e-11 -1.3863694298590453e-10  0.0000000000000000e+00 -6.8463115016269053e-12 -1.1477083114298591e-10  0.0000000000000000e+00 -6.3559807506662893e-12 -1.1112527314003664e-10  0.0000000000000000e+00 -1.2619762124416405e-11 -1.3578491026995298e-10  0.0000000000000000e+00 -4.0119934938065657e-12 -9.0547506016796686e-11  0.0000000000000000e+00 -6.0830145169669592e-12 -1.0779630843240638e-10  0.0000000000000000e+00 -4.0752742046004945e-12 -9.7987349160759699e-11  0.0000000000000000e+00 -1.0928146041815136e-12 -7.3926922107190888e-11  0.0000000000000000e+00 -3.4495244208438744e-12 -8.3540722414708958e-11  0.0000000000000000e+00 -1.4607563092537365e-11 -1.4675409149541220e-10  0.0000000000000000e+00 -3.3056562892152533e-12 -9.2231676860876538e-11  0.0000000000000000e+00 -2.3165663995806195e-12 -7.2168688328416669e-11  0.0000000000000000e+00 -7.5978948871774465e-12 -1.1894187034447007e-10  0.0000000000000000e+00 -8.5129031093525051e-12 -1.2296397303594332e-10  0.0000000000000000e+00 -1.3472823353039853e-11 -1.4170323457781929e-10  0.0000000000000000e+00 -5.1886926491083357e-12 -9.4285272587832480e-11  0.0000000000000000e+00 -5.0528778966536555e-12 -8.9731045167767633e-11  0.0000000000000000e+00 -1.1263015338360445e-11 -1.2987615029165888e-10  0.0000000000000000e+00 -1.2555122569984768e-11 -1.3345689370290418e-10  0.0000000000000000e+00 -1.3968609253596163e-12 -9.0168470538046912e-11  0.0000000000000000e+00 -1.3976220915267758e-11 -1.3931291522924459e-10  0.0000000000000000e+00 -1.4346235545569547e-11 -1.4221210785620736e-10  0.0000000000000000e+00 -6.1590946522464137e-12 -1.0506955403638428e-10  0.0000000000000000e+00 -7.7117013467208136e-12 -1.1154805237419730e-10  0.0000000000000000e+00 -8.0151638098471556e-12 -1.1475990940163419e-10  0.0000000000000000e+00 -4.0918698875913642e-12 -8.0310383609563546e-11  0.0000000000000000e+00 -4.5849413740147007e-12 -9.6131942029291776e-11  0.0000000000000000e+00 -3.1431715765161852e-12 -7.6249751802700849e-11  0.0000000000000000e+00 -4.9363251183946916e-12 -1.0139779107489846e-10  0.0000000000000000e+00 -7.5842493928161805e-12 -1.0868360374610303e-10  0.0000000000000000e+00 -1.0193265000325736e-11 -1.2611707285769036e-10  0.0000000000000000e+00 -1.4654220266658811e-11 -1.4443539174378672e-10  0.0000000000000000e+00 -1.4182363062672701e-11 -1.4441796484772994e-10  0.0000000000000000e+00 -5.7421143954718592e-12 -9.9726922801340067e-11  0.0000000000000000e+00 -5.5611833343970345e-12 -8.4483279639535157e-11  0.0000000000000000e+00 -5.7008730475054667e-12 -9.2517990459541931e-11  0.0000000000000000e+00 -1.4070338032040052e-11 -1.3720863497940556e-10  0.0000000000000000e+00 -8.7232791940459841e-12 -1.1861081429129213e-10  0.0000000000000000e+00 -5.2985323502850806e-12 -8.7525747758090418e-11  0.0000000000000000e+00 -7.5373567811679747e-12 -1.0626648762252110e-10  0.0000000000000000e+00 -1.5897185240642694e-11 -1.5067255346687594e-10  0.0000000000000000e+00 -1.5981712311409760e-11 -1.4959565421276560e-10  0.0000000000000000e+00 -1.5419539518626287e-11 -1.4526794522844904e-10  0.0000000000000000e+00 -9.1000166996442731e-12 -1.1478679774662867e-10  0.0000000000000000e+00 -6.3637942748463689e-12 -9.7908277794813870e-11  0.0000000000000000e+00 -6.7147308877112038e-12 -1.0319993753814199e-10  0.0000000000000000e+00 -1.5203719325905007e-11 -1.4686993708032248e-10  0.0000000000000000e+00 -9.5543787776082124e-12 -1.2273268144573552e-10  0.0000000000000000e+00 -9.2452644356909211e-12 -1.1214175182996141e-10  0.0000000000000000e+00 -1.2538259656751524e-11 -1.3153316787689438e-10  0.0000000000000000e+00 -8.8317102146284228e-12 -1.0879331420059065e-10  0.0000000000000000e+00 -1.5358250043601211e-11 -1.4400251362409088e-10  0.0000000000000000e+00 -1.6897752424299906e-11 -1.5242968842721765e-10  0.0000000000000000e+00 -7.1337479021567426e-12 -9.5805562714050390e-11  0.0000000000000000e+00 -7.4805129997198153e-12 -1.0159921193804938e-10  0.0000000000000000e+00 -9.6355305527358871e-12 -1.1800530071645255e-10  0.0000000000000000e+00 -6.8499139116094133e-12 -9.1630632646401790e-11  0.0000000000000000e+00 -1.3689068939681987e-11 -1.3433586171605064e-10  0.0000000000000000e+00 -1.5609779431927282e-11 -1.4677099525129689e-10  0.0000000000000000e+00 -7.2685232331205113e-12 -8.8677656995146656e-11  0.0000000000000000e+00 -7.3707219091719719e-12 -8.5182339590280398e-11  0.0000000000000000e+00 -1.5053933952828399e-11 -1.4214439454175817e-10  0.0000000000000000e+00 -1.5167210092718985e-11 -1.4060176033237006e-10  0.0000000000000000e+00 -1.4841818915841614e-11 -1.3688989082623195e-10  0.0000000000000000e+00 -1.1533816596876248e-11 -1.2866360642379986e-10  0.0000000000000000e+00 -1.6941848439672380e-11 -1.5143848366194162e-10  0.0000000000000000e+00 -1.0435288785019196e-11 -1.1749530070714084e-10  0.0000000000000000e+00 -8.3802380388430084e-12 -1.0551890020792082e-10  0.0000000000000000e+00 -8.0011335746908904e-12 -9.9502940184551500e-11  0.0000000000000000e+00 -1.0213437119193160e-11 -1.1515269420758553e-10  0.0000000000000000e+00 -1.0722602257451927e-11 -1.2254139798559092e-10  0.0000000000000000e+00 -1.3569844118548535e-11 -1.3243251751240980e-10  0.0000000000000000e+00 -1.6245390378769531e-11 -1.4901091229998847e-10  0.0000000000000000e+00 -1.0227636785073220e-11 -1.1137869511009059e-10  0.0000000000000000e+00 -1.1334254821558303e-11 -1.2624023865268135e-10  0.0000000000000000e+00 -1.5984047060656582e-11 -1.4309996955479666e-10  0.0000000000000000e+00 -1.6160998105485484e-11 -1.4614467469298650e-10  0.0000000000000000e+00 -1.5479489286134366e-11 -1.3944035599867233e-10  0.0000000000000000e+00 -1.2556143210792647e-11 -1.2977050005568012e-10  0.0000000000000000e+00 -1.7702380752976497e-11 -1.5381323514613590e-10  0.0000000000000000e+00 -1.6020642331463665e-11 -1.4454037154828771e-10  0.0000000000000000e+00 -9.7897825618165979e-12 -1.0854386134929515e-10  0.0000000000000000e+00 -8.8040728813106862e-12 -1.0212354179943271e-10  0.0000000000000000e+00 -1.1169596765143062e-11 -1.1476554684460889e-10  0.0000000000000000e+00 -1.1260905499476956e-11 -1.2071860475062313e-10  0.0000000000000000e+00 -1.6397745345091160e-11 -1.4233569340274595e-10  0.0000000000000000e+00 -8.5161373135127431e-12 -9.5303072995317867e-11  0.0000000000000000e+00 -1.6447250459613919e-11 -1.4801425587814760e-10  0.0000000000000000e+00 -8.7533635515640646e-12 -8.8188200675856103e-11  0.0000000000000000e+00 -9.0119763169629880e-12 -8.5681691315275052e-11  0.0000000000000000e+00 -1.4576662689954627e-11 -1.3476707147162332e-10  0.0000000000000000e+00 -8.4939857191532877e-12 -9.2386091094376205e-11  0.0000000000000000e+00 -1.7789742845268542e-11 -1.5300746899744370e-10  0.0000000000000000e+00 -1.1320446023743468e-11 -1.1724255644641573e-10  0.0000000000000000e+00 -9.7896467474918532e-12 -1.0628256555895350e-10  0.0000000000000000e+00 -9.6301032291576737e-12 -1.0153127862087762e-10  0.0000000000000000e+00 -8.9667872959748011e-12 -9.8467780341528614e-11  0.0000000000000000e+00 -1.0935513543607123e-11 -1.1063520078716804e-10  0.0000000000000000e+00 -1.6881313862538273e-11 -1.4684801583967671e-10  0.0000000000000000e+00 -1.5827915804921890e-11 -1.3867940577521490e-10  0.0000000000000000e+00 -9.8557805357634762e-12 -9.5306436310533893e-11  0.0000000000000000e+00 -8.8747331472919378e-12 -1.0388938805719912e-10  0.0000000000000000e+00 -1.6780527730983320e-11 -1.4530692022704386e-10  0.0000000000000000e+00 -1.0110003585441041e-11 -1.0429119072930829e-10  0.0000000000000000e+00 -1.1636956427412567e-11 -1.1328582517030509e-10  0.0000000000000000e+00 -1.3525608501433330e-11 -1.3076239202846513e-10  0.0000000000000000e+00 -8.8697268390323814e-12 -9.0530198564219076e-11  0.0000000000000000e+00 -1.8425059102972372e-11 -1.5500810570492864e-10  0.0000000000000000e+00 -1.0820319096163432e-11 -1.0856110806525577e-10  0.0000000000000000e+00 -1.5565252194072886e-11 -1.3685602695593221e-10  0.0000000000000000e+00 -1.6576557146641663e-11 -1.4099046327244314e-10  0.0000000000000000e+00 -1.8559489305181331e-11 -1.5622314910473431e-10  0.0000000000000000e+00 -1.2007136752789952e-11 -1.2370113927947369e-10  0.0000000000000000e+00 -1.0058053791407512e-11 -8.8329714275923797e-11  0.0000000000000000e+00 -1.0406285200960792e-11 -8.6114301358245831e-11  0.0000000000000000e+00 -1.4451542697476370e-11 -1.3300625788898369e-10  0.0000000000000000e+00 -9.9180968265795568e-12 -9.2899617280608178e-11  0.0000000000000000e+00 -1.0109920087952328e-11 -9.8046692638895477e-11  0.0000000000000000e+00 -1.7156998789760517e-11 -1.5069833532914252e-10  0.0000000000000000e+00 -1.1053070822243233e-11 -1.0364602362120216e-10  0.0000000000000000e+00 -1.2695651462969353e-11 -1.2845410880186847e-10  0.0000000000000000e+00 -1.8524622932473929e-11 -1.5441519283062002e-10  0.0000000000000000e+00 -1.0524701696656477e-11 -1.0084161715918127e-10  0.0000000000000000e+00 -1.1512050063918055e-11 -1.1915864794571733e-10  0.0000000000000000e+00 -1.7592812520501422e-11 -1.4746751872264952e-10  0.0000000000000000e+00 -1.2301128643878457e-11 -1.1934538067678245e-10  0.0000000000000000e+00 -1.3687994767026045e-11 -1.2943773352966626e-10  0.0000000000000000e+00 -1.6931195093492753e-11 -1.4802826765915642e-10  0.0000000000000000e+00 -1.2373069281896228e-11 -1.1751544958905101e-10  0.0000000000000000e+00 -1.1758117460506765e-11 -1.1045102189008668e-10  0.0000000000000000e+00 -1.2672414380418337e-11 -1.2331280112662534e-10  0.0000000000000000e+00 -1.2411570834282891e-11 -1.2121877677077593e-10  0.0000000000000000e+00 -1.7471482830576888e-11 -1.5000242751163236e-10  0.0000000000000000e+00 -1.7606629493373066e-11 -1.4888473287590349e-10  0.0000000000000000e+00 -1.6830556553295786e-11 -1.4430428472187527e-10  0.0000000000000000e+00 -1.1040180347165235e-11 -9.5364510011849647e-11  0.0000000000000000e+00 -1.2461299164326427e-11 -1.2636219785826933e-10  0.0000000000000000e+00 -1.0013351587671345e-11 -9.0642511137458979e-11  0.0000000000000000e+00 -1.0924431116149876e-11 -1.0693094946793736e-10  0.0000000000000000e+00 -1.7465218151890495e-11 -1.4473433331474958e-10  0.0000000000000000e+00 -1.7478393489863733e-11 -1.4597707875019853e-10  0.0000000000000000e+00 -1.9095480320970388e-11 -1.5612750445097594e-10  0.0000000000000000e+00 -1.5495780979575559e-11 -1.3524897902786990e-10  0.0000000000000000e+00 -1.6303781950100960e-11 -1.3846952122216716e-10  0.0000000000000000e+00 -1.2101865442876385e-11 -1.0907435750916935e-10  0.0000000000000000e+00 -1.3171384490769819e-11 -1.2572166288770234e-10  0.0000000000000000e+00 -1.4355871793446251e-11 -1.3153641888860881e-10  0.0000000000000000e+00 -1.2862074238208422e-11 -1.1616475934329022e-10  0.0000000000000000e+00 -1.1260298733359501e-11 -9.3103570928023506e-11  0.0000000000000000e+00 -1.1166005400779805e-11 -9.7858827411211826e-11  0.0000000000000000e+00 -1.8052344614976174e-11 -1.5251491834860801e-10  0.0000000000000000e+00 -1.1706921050738865e-11 -1.0635856230689987e-10  0.0000000000000000e+00 -1.2004557998486822e-11 -1.1213814987712654e-10  0.0000000000000000e+00 -1.3937345277787858e-11 -1.2834639315670782e-10  0.0000000000000000e+00 -1.9197579877409130e-11 -1.5559452533701416e-10  0.0000000000000000e+00 -1.9046713917332582e-11 -1.5675603068967766e-10  0.0000000000000000e+00 -1.7331882734200640e-11 -1.4321153821456337e-10  0.0000000000000000e+00 -1.2765033886631339e-11 -1.1401455750034306e-10  0.0000000000000000e+00 -1.8022800692210551e-11 -1.4476827960827259e-10  0.0000000000000000e+00 -1.7521331457130600e-11 -1.4247343793978193e-10  0.0000000000000000e+00 -1.6328905617297586e-11 -1.3733844982202117e-10  0.0000000000000000e+00 -1.6541932517139912e-11 -1.3979322289934980e-10  0.0000000000000000e+00 -1.8164229481065090e-11 -1.4927426904366577e-10  0.0000000000000000e+00 -1.6965963250832003e-11 -1.3993719156116165e-10  0.0000000000000000e+00 -1.8166803863998903e-11 -1.5075438135900568e-10  0.0000000000000000e+00 -1.3113787531701485e-11 -1.1970284143699568e-10  0.0000000000000000e+00 -1.4965410393876244e-11 -1.3117991996886966e-10  0.0000000000000000e+00 -1.9701790053032507e-11 -1.5794177805904990e-10  0.0000000000000000e+00 -1.3747586294972427e-11 -1.2516691278550071e-10  0.0000000000000000e+00 -1.5204824814434660e-11 -1.3324222555643812e-10  0.0000000000000000e+00 -1.1142583434712757e-11 -9.0669646116833418e-11  0.0000000000000000e+00 -1.1221114673582155e-11 -8.8754070731968545e-11  0.0000000000000000e+00 -1.2883372176147667e-11 -1.1206976108303445e-10  0.0000000000000000e+00 -1.3704326385388121e-11 -1.1896944663279209e-10  0.0000000000000000e+00 -1.8171272238549432e-11 -1.4769231011042537e-10  0.0000000000000000e+00 -1.1507792836155135e-11 -1.0026884163269418e-10  0.0000000000000000e+00 -1.8149955492263949e-11 -1.4580127780742706e-10  0.0000000000000000e+00 -1.8086733431493645e-11 -1.4393868932469203e-10  0.0000000000000000e+00 -1.1887109523638356e-11 -1.0281730014109291e-10  0.0000000000000000e+00 -1.2200546804853155e-11 -9.0672453070821300e-11  0.0000000000000000e+00 -1.2069287476506464e-11 -9.5561985549582773e-11  0.0000000000000000e+00 -1.9712126441804030e-11 -1.5710632570442347e-10  0.0000000000000000e+00 -1.7170307443306376e-11 -1.4107082897454661e-10  0.0000000000000000e+00 -1.9465249532477139e-11 -1.58392802