<?xml version="1.0"?>
<VTKFile type="UnstructuredGrid"  version="0.1"  >
<UnstructuredGrid>
<Piece  NumberOfPoints="10186" NumberOfCells="19856">
<Points>
<DataArray  type="Float64"  NumberOfComponents="3"  format="ascii">4.63254383609858e-23 9.999999999999972e-07 3.023754611937595e-08  4.633709867519689e-23 9.999999999999972e-07 3.013251934590372e-08  4.631962282007746e-23 9.998951144266158e-07 3.018504228173001e-08  4.633147222522518e-23 9.998936697482602e-07 3.007686765015871e-08  4.631344170515283e-23 9.999999999999972e-07 3.034560238885409e-08  4.630796566557138e-23 9.998973546934168e-07 3.029228086191063e-08  4.630178283234724e-23 9.999999999999972e-07 3.045061617929963e-08  4.629570637676369e-23 9.998958912630077e-07 3.040123928851382e-08  4.628899614634556e-23 9.999999999999972e-07 3.056578840792463e-08  4.62843638218405e-23 9.998965749749843e-07 3.05040876527413e-08  4.627730765590912e-23 9.999999999999972e-07 3.067106897027275e-08  4.627179903123447e-23 9.998957376678599e-07 3.061642391819964e-08  4.626534731473833e-23 9.999999999999972e-07 3.077879814635271e-08  4.626009335820544e-23 9.998951863034553e-07 3.072130788317836e-08  4.625364864939153e-23 9.999999999999972e-07 3.088417035614584e-08  4.624760313225325e-23 9.998959823356622e-07 3.083460586927334e-08  4.624149598002669e-23 9.999999999999972e-07 3.099363187059201e-08  4.623618103230474e-23 9.998967934213799e-07 3.093829808513481e-08  4.62289051000981e-23 9.999999999999972e-07 3.110704043490139e-08  4.622374539005209e-23 9.998933150555642e-07 3.104683002694943e-08  4.621725292432384e-23 9.999999999999972e-07 3.121199390385133e-08  4.62112262394047e-23 9.998943587000166e-07 3.116063615578312e-08  4.620560074854959e-23 9.999999999999972e-07 3.131694737280127e-08  4.619962601717434e-23 9.998936968621327e-07 3.126445983092732e-08  4.619385763010376e-23 9.999999999999972e-07 3.142271998051487e-08  4.618787849200332e-23 9.998948084855472e-07 3.137138375430719e-08  4.618159099062103e-23 9.999999999999972e-07 3.153320804652192e-08  4.617651677109279e-23 9.998979947788357e-07 3.147690733171359e-08  4.616915853390935e-23 9.999999999999972e-07 3.164518966134995e-08  4.616383148763849e-23 9.998949670813474e-07 3.158813850990098e-08  4.615737064775293e-23 9.999999999999972e-07 3.175136550075309e-08  4.615176471902175e-23 9.998961342732216e-07 3.169799349106716e-08  4.614550970230213e-23 9.999999999999972e-07 3.185819939977804e-08  4.614056891262698e-23 9.998991296383468e-07 3.180183171520749e-08  4.613371164123535e-23 9.999999999999972e-07 3.196446688662618e-08  4.612820885146466e-23 9.99896893243458e-07 3.191092485400846e-08  4.61218608706949e-23 9.999999999999972e-07 3.207120913820612e-08  4.611609318837596e-23 9.998944323946736e-07 3.201759219676725e-08  4.611005263471776e-23 9.999999999999972e-07 3.217756827249928e-08  4.610441820452491e-23 9.998968877691948e-07 3.212520647713086e-08  4.609761904505872e-23 9.999999999999972e-07 3.228956009200991e-08  4.609305582873401e-23 9.998971742423502e-07 3.222783613304209e-08  4.608541865605466e-23 9.999999999999972e-07 3.239945142675479e-08  4.607986897348222e-23 9.998928787116944e-07 3.234231723518261e-08  4.607376648028042e-23 9.999999999999972e-07 3.250440489570474e-08  4.606739794153022e-23 9.998940670406979e-07 3.245583463389004e-08  4.606191363389845e-23 9.999999999999972e-07 3.26111658448029e-08  4.605560273540471e-23 9.998954934309295e-07 3.256350279594475e-08  4.604936567081649e-23 9.999999999999972e-07 3.272418784852323e-08  4.604401041741981e-23 9.99894929574267e-07 3.266735325719662e-08  4.603707867001608e-23 9.999999999999972e-07 3.283485931297571e-08  4.603099884310583e-23 9.998935328921417e-07 3.278315441753514e-08  4.602441552690113e-23 9.999999999999972e-07 3.294891876620342e-08  4.601911647487011e-23 9.998955193585822e-07 3.289216774229299e-08  4.601253422677419e-23 9.999999999999972e-07 3.305593600385214e-08  4.600674145855264e-23 9.998949639673781e-07 3.300307658884114e-08  4.600088205099993e-23 9.999999999999972e-07 3.316088947280208e-08  4.599523679187853e-23 9.998945427107831e-07 3.310628015733908e-08  4.598893966919678e-23 9.999999999999972e-07 3.326845688527933e-08  4.598353219551571e-23 9.998949148521517e-07 3.321207793034401e-08  4.59761621526589e-23 9.999999999999972e-07 3.338354652271675e-08  4.597089232533488e-23 9.998967493430461e-07 3.332776225051128e-08  4.59644398363597e-23 9.999999999999972e-07 3.348913176135076e-08  4.595862082387119e-23 9.998952696289766e-07 3.343681439527996e-08  4.595278766058545e-23 9.999999999999972e-07 3.35940852303007e-08  4.594724392346843e-23 9.998966809667545e-07 3.354069974188685e-08  4.59411354848112e-23 9.999999999999972e-07 3.369903869925064e-08  4.59355858567023e-23 9.998949809568727e-07 3.364400626229273e-08  4.5929148649909e-23 9.999999999999972e-07 3.380700650964837e-08  4.592382110928411e-23 9.99894116329777e-07 3.374910905937429e-08  4.591748665320397e-23 9.999999999999972e-07 3.391204843767873e-08  4.591214539269366e-23 9.998965429898883e-07 3.385670122525768e-08  4.5905489997371e-23 9.999999999999972e-07 3.402010470715687e-08  4.590045503661344e-23 9.998974073548646e-07 3.396286295680739e-08  4.589383782159675e-23 9.999999999999972e-07 3.412505817610682e-08  4.588782902035105e-23 9.998958683445499e-07 3.407504899076167e-08  4.588218550552167e-23 9.999999999999972e-07 3.423001290877428e-08  4.587607861927407e-23 9.998964552824003e-07 3.418147413243542e-08  4.586939226278948e-23 9.999999999999972e-07 3.434524419517735e-08  4.586435401296852e-23 9.998969238740665e-07 3.428754858927918e-08  4.585770561215276e-23 9.999999999999972e-07 3.44505081860828e-08  4.585191200133992e-23 9.99894681184113e-07 3.439737357719439e-08  4.584558374644287e-23 9.999999999999972e-07 3.455969224587104e-08  4.58399998579277e-23 9.998972693125402e-07 3.450725675488646e-08  4.583295004814924e-23 9.999999999999972e-07 3.467348648372602e-08  4.582747644157818e-23 9.998946118375595e-07 3.461740018631597e-08  4.582129787237499e-23 9.999999999999972e-07 3.477843995267597e-08  4.581511051569596e-23 9.99892516720876e-07 3.472668742802293e-08  4.580956661133346e-23 9.999999999999972e-07 3.488410575838643e-08  4.580396405275607e-23 9.998954170831295e-07 3.482998620296162e-08  4.579764904076776e-23 9.999999999999972e-07 3.499144969110405e-08  4.579151379744658e-23 9.998929996130698e-07 3.493971066324696e-08  4.578544990925855e-23 9.999999999999972e-07 3.510132969934237e-08  4.577910866426126e-23 9.998921567928083e-07 3.505060334936718e-08  4.57725115930397e-23 9.999999999999972e-07 3.521786769154638e-08  4.576775624531166e-23 9.998963521784955e-07 3.515705223455672e-08  4.576071465336655e-23 9.999999999999972e-07 3.53241250777786e-08  4.575520837182054e-23 9.998958873098895e-07 3.526960856270851e-08  4.574886276143248e-23 9.999999999999972e-07 3.543087742997448e-08  4.574320254094233e-23 9.998951707732286e-07 3.537703093698637e-08  4.573705564684896e-23 9.999999999999972e-07 3.553722646365169e-08  4.573070747197345e-23 9.998950254334598e-07 3.548943117312203e-08  4.572462493225079e-23 9.999999999999972e-07 3.564919238691632e-08  4.571874947700469e-23 9.998930225965664e-07 3.559513637959943e-08  4.57122206829666e-23 9.999999999999972e-07 3.576091993182451e-08  4.570628184927067e-23 9.998939689119554e-07 3.570838110222265e-08  4.569967478833542e-23 9.999999999999972e-07 3.587392330459651e-08  4.56947795004089e-23 9.998971131023806e-07 3.581512924074334e-08  4.568763050792625e-23 9.999999999999972e-07 3.598240853812188e-08  4.568206806055352e-23 9.998966743338849e-07 3.592918494383978e-08  4.567447931405414e-23 9.999999999999972e-07 3.61008639617657e-08  4.567019272782863e-23 9.998991393186897e-07 3.6038613416714e-08  4.56621927676349e-23 9.999999999999972e-07 3.621153133351643e-08  4.565692596619736e-23 9.998983720235017e-07 3.615734248700402e-08  4.56493893909537e-23 9.999999999999972e-07 3.632685389841741e-08  4.564488995645397e-23 9.998972659038033e-07 3.626464710529634e-08  4.56377030213322e-23 9.999999999999972e-07 3.643211535816294e-08  4.563251610338461e-23 9.998985919686415e-07 3.637742693027909e-08  4.562570636549922e-23 9.999999999999972e-07 3.65401716276411e-08  4.562076668506598e-23 9.998991224786104e-07 3.648378679217121e-08  4.561405418972497e-23 9.999999999999972e-07 3.664512509659104e-08  4.560849101180102e-23 9.99898764999867e-07 3.659399874851146e-08  4.560240174834712e-23 9.999999999999972e-07 3.675008095788545e-08  4.559701886547289e-23 9.998972161650823e-07 3.669578182158363e-08  4.5590394760298e-23 9.999999999999972e-07 3.685823029169315e-08  4.558514229744119e-23 9.998975825426547e-07 3.680312281388007e-08  4.557840870228477e-23 9.999999999999972e-07 3.696619110449727e-08  4.557247117913516e-23 9.998941423210046e-07 3.691381387959284e-08  4.556675652651052e-23 9.999999999999972e-07 3.707114457344721e-08  4.556033122971845e-23 9.998929808132508e-07 3.702199931517786e-08  4.555503088090158e-23 9.999999999999972e-07 3.717675979983741e-08  4.5549334157806e-23 9.998966333562444e-07 3.71247046761056e-08  4.554231096770325e-23 9.999999999999972e-07 3.729133059251774e-08  4.5537121709714e-23 9.998965061650033e-07 3.723457743821731e-08  4.553032145879198e-23 9.999999999999972e-07 3.739932248824807e-08  4.552369236301881e-23 9.998917816873356e-07 3.735081376209414e-08  4.551717351997518e-23 9.999999999999972e-07 3.751774859296008e-08  4.551189438904171e-23 9.998962854806441e-07 3.746158425781668e-08  4.550512734643477e-23 9.999999999999972e-07 3.762625087829583e-08  4.549942656244761e-23 9.998942539932314e-07 3.757185296881055e-08  4.549272796116792e-23 9.999999999999972e-07 3.773793461203061e-08  4.548710292383113e-23 9.998927559881533e-07 3.768135643229463e-08  4.548093079525919e-23 9.999999999999972e-07 3.78441940360118e-08  4.547509640021857e-23 9.998950439533901e-07 3.779178954806637e-08  4.546852558735597e-23 9.999999999999972e-07 3.795593021539259e-08  4.546372052271262e-23 9.998959333148558e-07 3.789514370492572e-08  4.545609583137682e-23 9.999999999999972
[...]
<PointData  Tensors="f_71"> 
<DataArray  type="Float64"  Name="f_71"  NumberOfComponents="9" format="ascii">2.8517151710839621e+06 5.6227104945281445e-09 -6.1815200689853291e-09 5.6227104945281445e-09 -1.7219624681161501e+05 4.4857548856505152e+05 -6.1815200689853291e-09 4.4857548856505152e+05 1.4656496033336738e+08  2.8139630117051220e+06 5.7825580676549792e-09 -5.9887607918235857e-09 5.7825580676549792e-09 -1.7347780530672451e+05 4.6187103310566227e+05 -5.9887607918235857e-09 4.6187103310566227e+05 1.4472103055061215e+08  2.9827516822765633e+06 5.5652759890434650e-09 -6.1836378561119859e-09 5.5652759890434650e-09 2.9239929427872692e+04 1.7248069395793355e+06 -6.1836378561119859e-09 1.7248069395793355e+06 1.4763516140990800e+08  2.9463921315356228e+06 5.7307825107156884e-09 -5.9872952530165754e-09 5.7307825107156884e-09 3.1955421073288584e+04 1.7134610637091314e+06 -5.9872952530165754e-09 1.7134610637091314e+06 1.4575237943014908e+08  2.8691918406727882e+06 5.4530415792688133e-09 -6.3802491552078033e-09 5.4530415792688133e-09 -2.0773779782404800e+05 4.2000664263539470e+05 -6.3802491552078033e-09 4.2000664263539470e+05 1.4839629513622147e+08  3.0218097723989356e+06 5.3986055294326810e-09 -6.3837750440049172e-09 5.3986055294326810e-09 2.9900715049030754e+04 1.7263783950599220e+06 -6.3837750440049172e-09 1.7263783950599220e+06 1.4956087293928054e+08  2.9736264519569483e+06 5.2985665362021625e-09 -6.5683397043429278e-09 5.2985665362021625e-09 -8.6961801952132781e+04 4.7201733427547052e+05 -6.5683397043429278e-09 4.7201733427547052e+05 1.5032521487054861e+08  3.0496362560995775e+06 5.2372202648089143e-09 -6.5756223967896426e-09 5.2372202648089143e-09 1.4060269245920841e+04 1.7158584133782524e+06 -6.5756223967896426e-09 1.7158584133782524e+06 1.5137416599374691e+08  2.9753705971483057e+06 5.1273378010760895e-09 -6.7730567155445306e-09 5.1273378010760895e-09 -1.5316229571450452e+05 4.1932486968859768e+05 -6.7730567155445306e-09 4.1932486968859768e+05 1.5220323215042230e+08  3.1030356926697697e+06 5.0785845341756133e-09 -6.7652796830337418e-09 5.0785845341756133e-09 4.4514101085210539e+04 1.7197379189081204e+06 -6.7652796830337418e-09 1.7197379189081204e+06 1.5320739696070433e+08  3.0331137140449309e+06 4.9650174690986961e-09 -6.9668817724998933e-09 4.9650174690986961e-09 -1.1737184855472470e+05 4.5138354283075873e+05 -6.9668817724998933e-09 4.5138354283075873e+05 1.5410821539092025e+08  3.0979569472900089e+06 4.9053628557822230e-09 -6.9686284073724582e-09 4.9053628557822230e-09 -3.4572172226649345e+04 1.7140586754553635e+06 -6.9686284073724582e-09 1.7140586754553635e+06 1.5509455484481868e+08  3.0298463565286747e+06 4.7956866818370003e-09 -7.1708139260839945e-09 4.7956866818370003e-09 -1.9334577020147970e+05 4.1330662322778930e+05 -7.1708139260839945e-09 4.1330662322778930e+05 1.5600129798816308e+08  3.1573993007030711e+06 4.7427913075077538e-09 -7.1642613527207396e-09 4.7427913075077538e-09 3.8017116667667578e+03 1.7337338501047178e+06 -7.1642613527207396e-09 1.7337338501047178e+06 1.5701419313868308e+08  3.0984233229852645e+06 4.6405839825964108e-09 -7.3557829186402133e-09 4.6405839825964108e-09 -1.3442942584249351e+05 4.3731636229201185e+05 -7.3557829186402133e-09 4.3731636229201185e+05 1.5781965920755884e+08  3.1952758084926656e+06 4.5818752890328151e-09 -7.3563475002097173e-09 4.5818752890328151e-09 5.7450152228674788e+03 1.7272754932728249e+06 -7.3563475002097173e-09 1.7272754932728249e+06 1.5884640546249881e+08  3.1443721848267205e+06 4.4837161802274968e-09 -7.5463404692858934e-09 4.4837161802274968e-09 -1.1820933882324191e+05 4.3296926812659152e+05 -7.5463404692858934e-09 4.3296926812659152e+05 1.5966726894092005e+08  3.2430493737898376e+06 4.4240523817595878e-09 -7.5454009623899218e-09 4.4240523817595878e-09 2.5855587100175308e+04 1.7375528733921028e+06 -7.5454009623899218e-09 1.7375528733921028e+06 1.6067954810322881e+08  3.1662040189318280e+06 4.3147504300644013e-09 -7.7559201853117302e-09 4.3147504300644013e-09 -1.5270285985415103e+05 4.0912068309539644e+05 -7.7559201853117302e-09 4.0912068309539644e+05 1.6168696627905422e+08  3.2698273774464773e+06 4.2616686172556814e-09 -7.7428702366231373e-09 4.2616686172556814e-09 4.4560763814233405e+03 1.7419761518979226e+06 -7.7428702366231373e-09 1.7419761518979226e+06 1.6259108208211344e+08  3.1950200596550680e+06 4.1559726631422734e-09 -7.9395057539690499e-09 4.1559726631422734e-09 -1.6454010022591625e+05 4.4637090999989811e+05 -7.9395057539690499e-09 4.4637090999989811e+05 1.6344118411923879e+08  3.3037896339702723e+06 4.0958376079372102e-09 -7.9437004652552283e-09 4.0958376079372102e-09 -4.1283246200755721e+03 1.7273945467334790e+06 -7.9437004652552283e-09 1.7273945467334790e+06 1.6451336955733511e+08  3.2204932530660662e+06 4.0036117254278581e-09 -8.1303288238542027e-09 4.0036117254278581e-09 -1.8658129701147965e+05 4.3322578388485697e+05 -8.1303288238542027e-09 4.3322578388485697e+05 1.6530515120766905e+08  3.3628365866902824e+06 3.9454550769178148e-09 -8.1250846064545321e-09 3.9454550769178148e-09 3.8954469366626705e+04 1.7340489091246659e+06 -8.1250846064545321e-09 1.7340489091246659e+06 1.6628592033666289e+08  3.2863339296011557e+06 3.8547883395388081e-09 -8.3118540749830491e-09 3.8547883395388081e-09 -1.3192194920505141e+05 4.4490912236637954e+05 -8.3118540749830491e-09 4.4490912236637954e+05 1.6710253449513623e+08  3.3880126964007197e+06 3.7964424608455672e-09 -8.3105949360065887e-09 3.7964424608455672e-09 1.9284551397753818e+04 1.7028531041673943e+06 -8.3105949360065887e-09 1.7028531041673943e+06 1.6807094298816746e+08  3.3202551113676280e+06 3.6978580926405568e-09 -8.5008679219884347e-09 3.6978580926405568e-09 -1.3569167512405882e+05 4.1866624653304316e+05 -8.5008679219884347e-09 4.1866624653304316e+05 1.6889250451491082e+08  3.4245280721852803e+06 3.6428908242133060e-09 -8.4982162239366569e-09 3.6428908242133060e-09 1.9706149453713697e+04 1.6852453848922411e+06 -8.4982162239366569e-09 1.6852453848922411e+06 1.6987659697037336e+08  3.3590408894585813e+06 3.5358364206502759e-09 -8.7007634459601156e-09 3.5358364206502759e-09 -1.3738082586236691e+05 4.3588766960659309e+05 -8.7007634459601156e-09 4.3588766960659309e+05 1.7086824899601614e+08  3.4530461532228473e+06 3.4849747638174277e-09 -8.6907003029938664e-09 3.4849747638174277e-09 3.8632324789849863e+03 1.6712815447248896e+06 -8.6907003029938664e-09 1.6712815447248896e+06 1.7172437183880556e+08  3.4038227573812385e+06 3.3871806894230968e-09 -8.8795728712896233e-09 3.3871806894230968e-09 -1.1971588609758491e+05 4.5654885104395333e+05 -8.8795728712896233e-09 4.5654885104395333e+05 1.7261869307678586e+08  3.4933829636267675e+06 3.3330698540978696e-09 -8.8778788728990779e-09 3.3330698540978696e-09 1.1584538169834628e+04 1.6391837631501900e+06 -8.8778788728990779e-09 1.6391837631501900e+06 1.7352267379263991e+08  3.4239323793874532e+06 3.2332722303976772e-09 -9.0689141182069789e-09 3.2332722303976772e-09 -1.4873711427970903e+05 4.0861383175668737e+05 -9.0689141182069789e-09 4.0861383175668737e+05 1.7440462341987300e+08  3.5204981839660602e+06 3.1809409924684377e-09 -9.0627572677861643e-09 3.1809409924684377e-09 -3.8934613383771257e+03 1.6231435774229008e+06 -9.0627572677861643e-09 1.6231435774229008e+06 1.7529076636155748e+08  3.4578320597031177e+06 3.0833690490738393e-09 -9.2532685031181927e-09 3.0833690490738393e-09 -1.5326600991340299e+05 4.1756339907342353e+05 -9.2532685031181927e-09 4.1756339907342353e+05 1.7621406479840946e+08  3.5757374261870706e+06 3.0310695250708176e-09 -9.2455454636035944e-09 3.0310695250708176e-09 3.0393408623753148e+04 1.6520733017191424e+06 -9.2455454636035944e-09 1.6520733017191424e+06 1.7711183611470243e+08  3.4959166960105198e+06 2.9346159818537054e-09 -9.4403949126680054e-09 2.9346159818537054e-09 -1.5247615787537265e+05 4.3354768338466279e+05 -9.4403949126680054e-09 4.3354768338466279e+05 1.7808784353836426e+08  3.6161284261114751e+06 2.8836625529060298e-09 -9.4275822575671145e-09 2.8836625529060298e-09 3.8522823188446004e+04 1.6551441177242498e+06 -9.4275822575671145e-09 1.6551441177242498e+06 1.7890179217939669e+08  3.5637870188237973e+06 2.7942815239564100e-09 -9.6094418231160192e-09 2.7942815239564100e-09 -9.0492724764125291e+04 4.7693135703768616e+05 -9.6094418231160192e-09 4.7693135703768616e+05 1.7978805304540750e+08  3.6504475198790743e+06 2.7410419678719664e-09 -9.6081957464507279e-09 2.7410419678719664e-09 3.7083470857618493e+04 1.6089085924188280e+06 -9.6081957464507279e-09 1.6089085924188280e+06 1.8064850861709836e+08  3.5763430269612344e+06 2.6433369549351688e-09 -9.8031961845055653e-09 2.6433369549351688e-09 -1.3611948248581280e+05 4.1448422759452771e+05 -9.8031961845055653e-09 4.1448422759452771e+05 1.8164740955074981e+08  3.6707131366527025e+06 2.5931911190067962e-09 -9.7899563875518116e-09 2.5931911190067962e-09 9.6314290771017495e+03 1.5965442526031008e+06 -9.7899563875518116e-09 1.5965442526031008e+06 1.8239974309553972e+08  3.5920199290398201e+06 2.4914985277649230e-09 -9.9957716718718281e-09 2.4914985277649230e-09 -1.7638453521718117e+05 3.8311989343271940e+05 -9.9957716718718281e-09 3.8311989343271940e+05 1.8351699172737324e+08  3.7004517182858847e+06 2.4400983842624961e-09 -9.9802056317331630e-09 2.4400983842624961e-09 -5.8964999975693454e+03 1.6272098316550234e+06 -9.9802056317331630e-09 1.6272098316550234e+06 1.8429972914180538e+08  3.6200987002786691e+06 2.3460750927937091e-09 -1.0170231740998152e-08 2.3460750927937091e-09 -1.8680877010721565e+05 3.8978954711036530e+05 -1.0170231740998152e-08 3.8978954711036530e+05 1.8519628937576899e+08  3.7477478618424498e+06 2.2894122707501633e-09 -1.0168296003401129e-08 2.2894122707501633e-09 1.1837444039717995e+04 1.6372204502810494e+06 -1.0168296003401129e-08 1.6372204502810494e+06 1.8617342036601424e+08  3.6868382496560616e+06 2.2104588285492201e-09 -1.0335382233287107e-08 2.2104588285492201e-09 -1.2555417379847154e+05 4.2358524954145995e+05 -1.0335382233287107e-08 4.2358524954145995e+05 1.8685995042141217e+08  3.8002472109015482e+06 2.1503539389188819e-09 -1.0342176361914582e-08 2.1503539389188819e-09 4.5603470973795913e+04 1.6089219040113105e+06 -1.0342176361914582e-08 1.6089219040113105e+06 1.8787224156812391e+08  3.6946851005558688e+06 2.0542409690553578e-09 -1.0529340081857615e-08 2.0542409690553578e-09 -1.8012080714149860e+05 4.0607706489378726e+05 -1.0529340081857615e-08 4.0607706489378726e+05 1.8872686350423434e+08  3.8467946200811272e+06 2.0070578442236799e-09 -1.0518822753069484e-08 2.0070578442236799e-09 6.7496215088763522e+04 1.5972787084982183e+06 -1.0518822753069484e-08 1.5972787084982183e+06 1.8959614750094971e+08  3.7653108970825500e+06 1.9079704269442178e-09 -1.0709929738985276e-08 1.9079704269442178e-09 -1.1814515971018720e+05 4.4657279647170362e+05 -1.0709929738985276e-08 4.4657279647170362e+05 1.9056440029428345e+08  3.8683111157669015e+06 1.8570934043200532e-09 -1.0702866443689000e-08 1.8570934043200532e-09 4.1438539368794751e+04 1.5882848942058610e+06 -1.0702866443689000e-08 1.5882848942058610e+06 1.9137189945562875e+08  3.7861775991965262e+06 1.7589525050679817e-09 -1.0895434550444321e-08 1.7589525050679817e-09 -1.4498275337496313e+05 3.9952514885833632e+05 -1.0895434550444321e-08 3.9952514885833632e+05 1.9232892022001845e+08  3.8969764227130865e+06 1.7061730961073576e-09 -1.0886530152546122e-08 1.7061730961073576e-09 2.7691175486621320e+04 1.6079157310583335e+06 -1.0886530152546122e-08 1.6079157310583335e+06 1.9317029989251184e+08  3.8347208879679437e+06 1.6166368088639811e-09 -1.1071695745771047e-08 1.6166368088639811e-09 -1.2057261514602213e+05 4.1359094958213397e+05 -1.1071695745771047e-08 4.1359094958213397e+05 1.9408402957733575e+08  3.9220207503887662e+06 1.5604242580388150e-09 -1.1065959728983702e-08 1.5604242580388150e-09 8.5007822284681279e+03 1.6244931142728042e+06 -1.1065959728983702e-08 1.6244931142728042e+06 1.9493579008294669e+08  3.8632886349948398e+06 1.4795220658151034e-09 -1.1243498135146301e-08 1.4795220658151034e-09 -1.3123249129194079e+05 4.2678422060267674e+05 -1.1243498135146301e-08 4.2678422060267674e+05 1.9579403529987600e+08  3.9633839862574637e+06 1.4249600231596735e-09 -1.1234957433092071e-08 1.4249600231596735e-09 2.3149098718214937e+04 1.6151193822508343e+06 -1.1234957433092071e-08 1.6151193822508343e+06 1.9659774032141796e+08  3.9036006191085414e+06 1.3356707554972039e-09 -1.1427162099035713e-08 1.3356707554972039e-09 -1.2462970152457310e+05 4.1439515015788481e+05 -1.1427162099035713e-08 4.1439515015788481e+05 1.9762136620630544e+08  3.9948429302726751e+06 1.2873534931784297e-09 -1.1408320807345293e-08 1.2873534931784297e-09 1.8163074461164480e+04 1.5984204369307191e+06 -1.1408320807345293e-08 1.5984204369307191e+06 1.9829809569733924e+08  3.9267205643159635e+06 1.1919980192800769e-09 -1.1605382444802090e-08 1.1919980192800769e-09 -1.4560431033569545e+05 3.9166649452610244e+05 -1.1605382444802090e-08 3.9166649452610244e+05 1.9933937273328623e+08  4.0237356154078045e+06 1.1400642089709381e-09 -1.1590788947445566e-08 1.1400642089709381e-09 4.9085183755895923e+03 1.6073425253286795e+06 -1.1590788947445566e-08 1.6073425253286795e+06 2.0009447663143983e+08  3.9802109269695440e+06 1.0576551301129173e-09 -1.1778073382146029e-08 1.0576551301129173e-09 -1.1239947027865287e+05 4.0479274423179065e+05 -1.1778073382146029e-08 4.0479274423179065e+05 2.0110269266546449e+08  4.0643745166782555e+06 1.0045406299471029e-09 -1.1768166494694490e-08 1.0045406299471029e-09 1.4378426401348524e+04 1.5708405376167726e+06 -1.1768166494694490e-08 1.5708405376167726e+06 2.0186049812476504e+08  4.0099881382765095e+06 9.2472394106015393e-10 -1.1943173395543983e-08 9.2472394106015393e-10 -1.1775186256549771e+05 4.0923539876192185e+05 -1.1943173395543983e-08 4.0923539876192185e+05 2.0272927546491882e+08  4.0922611359014153e+06 8.7114423795477062e-10 -1.1934824813629279e-08 8.7114423795477062e-10 5.8910644194501847e+03 1.5485812113668600e+06 -1.1934824813629279e-08 1.5485812113668600e+06 2.0347782687636369e+08  4.0498896277741496e+06 7.9393203761562103e-10 -1.2111237912727466e-08 7.9393203761562103e-10 -1.0721203303128657e+05 4.1564836510972260e+05 -1.2111237912727466e-08 4.1564836510972260e+05 2.0442965271200526e+08  4.1357041100129713e+06 7.4215963912646698e-10 -1.2097203249403768e-08 7.4215963912646698e-10 2.5279691814222828e+04 1.5654830304444549e+06 -1.2097203249403768e-08 1.5654830304444549e+06 2.0511500670037678e+08  4.0806677462008852e+06 6.6083355818196777e-10 -1.2280850547627517e-08 6.6083355818196777e-10 -1.1338373632592679e+05 4.2009167044963932e+05 -1.2280850547627517e-08 4.2009167044963932e+05 2.0612821077592215e+08  4.1664757078475663e+06 6.1367099790966932e-10 -1.2262362634893725e-08 6.1367099790966932e-10 2.1152207155861739e+04 1.5512037832878439e+06 -1.2262362634893725e-08 1.5512037832878439e+06 2.0675792865652499e+08  4.1162263593674665e+06 5.3028218895263455e-10 -1.2445345504600553e-08 5.3028218895263455e-10 -1.0832067974422558e+05 4.1793888221785467e+05 -1.2445345504600553e-08 4.1793888221785467e+05 2.0776066808548751e+08  4.1855616561404457e+06 4.8056429285502725e-10 -1.2432310261553747e-08 4.8056429285502725e-10 -4.8924585379363098e+03 1.5179539335698765e+06 -1.2432310261553747e-08 1.5179539335698765e+06 2.0841238080475563e+08  4.1255792768924641e+06 3.9801372321377776e-10 -1.2617652180234216e-08 3.9801372321377776e-10 -1.5242229773735336e+05 3.5401993543936411e+05 -1.2617652180234216e-08 3.5401993543936411e+05 2.0941936725445181e+08  4.2248174773758808e+06 3.5012449627559914e-10 -1.2597189744586275e-08 3.5012449627559914e-10 6.1421393365661716e+03 1.5274460720496979e+06 -1.2597189744586275e-08 1.5274460720496979e+06 2.1006724136371592e+08  4.1615147985938014e+06 2.6760376286656131e-10 -1.2783664380293201e-08 2.6760376286656131e-10 -1.4803798888583345e+05 3.6217300170403288e+05 -1.2783664380293201e-08 3.6217300170403288e+05 2.1108894539284423e+08  4.2563041231044829e+06 2.1453876603821966e-10 -1.2769109474357512e-08 2.1453876603821966e-10 1.6281804887612003e+02 1.5429828924574058e+06 -1.2769109474357512e-08 1.5429828924574058e+06 2.1179585144503006e+08  4.2312535564538371e+06 1.4569533096573487e-10 -1.2940408818266805e-08 1.4569533096573487e-10 -7.9885006488109328e+04 3.8410527710076969e+05 -1.2940408818266805e-08 3.8410527710076969e+05 2.1271519796407852e+08  4.2955337823392628e+06 8.9678965188725649e-11 -1.2930434548765548e-08 8.9678965188725649e-11 1.2485569594002540e+04 1.5313190693992823e+06 -1.2930434548765548e-08 1.5313190693992823e+06 2.1341455580652443e+08  4.2411711760176951e+06 1.1620384908624077e-11 -1.3108470847968998e-08 1.1620384908624077e-11 -1.2206817088846718e+05 3.7338231027353939e+05 -1.3108470847968998e-08 3.7338231027353939e+05 2.1435008884347540e+08  4.3268716998533988e+06 -3.9647833005176441e-11 -1.3094980454595439e-08 -3.9647833005176441e-11 1.0025040505444047e+04 1.5163264729743523e+06 -1.3094980454595439e-08 1.5163264729743523e+06 2.1504055490019980e+08  4.2783651664817464e+06 -1.2060650908862041e-10 -1.3280835236292484e-08 -1.2060650908862041e-10 -1.1859086371437123e+05 3.8017909441900911e+05 -1.3280835236292484e-08 3.8017909441900911e+05 2.1610683160920304e+08  4.3519746642659716e+06 -1.7095346599594665e-10 -1.3264046280220631e-08 -1.7095346599594665e-10 -5.8023628556783888e+03 1.5001193612573594e+06 -1.3264046280220631e-08 1.5001193612573594e+06 2.1671796853782162e+08  4.3134358877468342e+06 -2.4799602221377419e-10 -1.3440390349792903e-08 -2.4799602221377419e-10 -1.1231145840940421e+05 3.7577926384830638e+05 -1.3440390349792903e-08 3.7577926384830638e+05 2.1768209919833526e+08  4.3977364646680867e+06 -2.9746097839453559e-10 -1.3426670295137393e-08 -2.9746097839453559e-10 1.7959069383805348e+04 1.4914132681559103e+06 -1.3426670295137393e-08 1.4914132681559103e+06 2.1835221916623214e+08  4.3383576565945586e+06 -3.7892428609185425e-10 -1.3610409045410474e-08 -3.7892428609185425e-10 -1.2957836907600281e+05 3.7024477091730514e+05 -1.3610409045410474e-08 3.7024477091730514e+05 2.1938944586603433e+08  4.4392125129401395e+06 -4.2770498200161504e-10 -1.3591488340281970e-08 -4.2770498200161504e-10 3.2452300300106494e+04 1.5143853354711460e+06 -1.3591488340281970e-08 1.5143853354711460e+06 2.2002397936597750e+08  4.3852913689828981e+06 -5.0041269322172117e-10 -1.3769530775592616e-08 -5.0041269322172117e-10 -1.0389049259771724e+05 3.8146399607720471e+05 -1.3769530775592616e-08 3.8146399607720471e+05 2.2102988770061341e+08  4.4528036612440944e+06 -5.5593869352365344e-10 -1.3756729965031041e-08 -5.5593869352365344e-10 -3.2462913132664899e+03 1.5071494541326764e+06 -1.3756729965031041e-08 1.5071494541326764e+06 2.2166621377819413e+08  4.3931788938968927e+06 -6.2379661989941338e-10 -1.3924556827363436e-08 -6.2379661989941338e-10 -1.4428803543580030e+05 3.4975725001498306e+05 -1.3924556827363436e-08 3.4975725001498306e+05 2.2251544332055274e+08  4.4948267166507784e+06 -6.7712747985429406e-10 -1.3913524771927646e-08 -6.7712747985429406e-10 1.5257014848032868e+04 1.5078724602746093e+06 -1.3913524771927646e-08 1.5078724602746093e+06 2.2325669091815406e+08  4.4281759535664516e+06 -7.5271452818518228e-10 -1.4088519989092345e-08 -7.5271452818518228e-10 -1.4209562652826641e+05 3.8919592622739426e+05 -1.4088519989092345e-08 3.8919592622739426e+05 2.2419762967458278e+08  4.5363448367570844e+06 -8.0068552989408148e-10 -1.4073173282995791e-08 -8.0068552989408148e-10 3.2174140174628272e+04 1.5004307939875831e+06 -1.4073173282995791e-08 1.5004307939875831e+06 2.2486495993215996e+08  4.4972123738223733e+06 -8.7125209896125979e-10 -1.4244947815156296e-08 -8.7125209896125979e-10 -7.6720645973626772e+04 4.2844480162470002e+05 -1.4244947815156296e-08 4.2844480162470002e+05 2.2586409888294360e+08  4.5679960983379064e+06 -9.2269282743408960e-10 -1.4230449687348604e-08 -9.2269282743408960e-10 3.2599827070944426e+04 1.4819312867778535e+06 -1.4230449687348604e-08 1.4819312867778535e+06 2.2642845745635507e+08  4.5066874721150408e+06 -9.9896495233547886e-10 -1.4409831259383697e-