<?xml version="1.0"?>
<VTKFile type="UnstructuredGrid"  version="0.1"  >
<UnstructuredGrid>
<Piece  NumberOfPoints="10412" NumberOfCells="20437">
<Points>
<DataArray  type="Float64"  NumberOfComponents="3"  format="ascii">3.377330806630044e-23 9.249241761859685e-07 6.822126094104899e-08  3.361254692808431e-23 9.260002580669399e-07 7.074535042635212e-08  3.398542256333146e-23 9.274353221203229e-07 6.882184933582581e-08  3.384682389229446e-23 9.282870979698116e-07 7.092201103178713e-08  3.347231164578849e-23 9.272645250385755e-07 7.327274452817096e-08  3.422503494552066e-23 9.266859539086698e-07 6.591424465389144e-08  3.432964615901317e-23 9.288481346486294e-07 6.713417134964383e-08  3.417927189344058e-23 9.296839662732811e-07 6.932445394709314e-08  3.376706805473849e-23 9.292102907499433e-07 7.256358053251419e-08  3.360272842264584e-23 9.293137304777222e-07 7.414726007200244e-08  3.391638436234728e-23 9.309574820573006e-07 7.296585010525694e-08  3.370279385381123e-23 9.310482521456282e-07 7.498047246289024e-08  3.452172729225416e-23 9.286280072242704e-07 6.518393088510686e-08  3.465795948995875e-23 9.278083138861462e-07 6.313716699734602e-08  3.402693224753887e-23 9.302246143127101e-07 7.123725553155556e-08  3.446050178043401e-23 9.305022010585882e-07 6.760959510386214e-08  3.465521146072174e-23 9.302898508146931e-07 6.564345597278846e-08  3.442633180785699e-23 9.315162004794754e-07 6.893137027627958e-08  3.419869044128435e-23 9.319339513961405e-07 7.139953234028602e-08  3.393307374492826e-23 9.320051816249339e-07 7.386322507854473e-08  3.462060672421894e-23 9.320158102676773e-07 6.768110718261125e-08  3.480400162820731e-23 9.297539108555439e-07 6.376733332795053e-08  3.417692864546583e-23 9.329399278243592e-07 7.260152159958316e-08  3.424362965655404e-23 9.311742767208584e-07 7.023508119871815e-08  3.46084761308052e-23 9.329305328524711e-07 6.870509243936088e-08  3.357958856143181e-23 9.327627185063942e-07 7.780467344135625e-08  3.346813886314959e-23 9.331632466319337e-07 7.920905120620451e-08  3.367512747683025e-23 9.339154367363651e-07 7.80968536237515e-08  3.491495868072026e-23 9.31189362518916e-07 6.420337271061978e-08  3.467135750923647e-23 9.313733866154598e-07 6.658156109740629e-08  3.442236555619136e-23 9.3254501336338e-07 6.999590797923095e-08  3.369398725313887e-23 9.321992543449678e-07 7.621079746924272e-08  3.37923819027352e-23 9.33528187039995e-07 7.665346994975532e-08  3.48064288118252e-23 9.325320622320669e-07 6.652362257799935e-08  3.496688385974539e-23 9.295113161509742e-07 6.20576259088605e-08  3.384699668256893e-23 9.323179657174825e-07 7.495132242302661e-08  3.402845024762305e-23 9.331272747156481e-07 7.412624300526667e-08  3.48457747168018e-23 9.317921226666012e-07 6.542928660655134e-08  3.390420604299727e-23 9.332947362077335e-07 7.541279680466332e-08  3.478344989583103e-23 9.332831030907047e-07 6.748163911165454e-08  3.358033632626954e-23 9.343946413522985e-07 7.94298610203714e-08  3.44115747828433e-23 9.334772769279171e-07 7.10253661894268e-08  3.506239648421486e-23 9.309412075447385e-07 6.2627216062685e-08  3.377264925185569e-23 9.349367910442401e-07 7.823980987229638e-08  3.461244704285385e-23 9.338818005044687e-07 6.962059329531328e-08  3.422215458933197e-23 9.340261554265535e-07 7.328039011389133e-08  3.387164077551432e-23 9.34664005042161e-07 7.707538749209353e-08  3.493154208578951e-23 9.335840679197696e-07 6.644870807769255e-08  3.478292414739249e-23 9.341127429190234e-07 6.831601446091707e-08  3.493138322192702e-23 9.343163795672584e-07 6.718245064364511e-08  3.497220799752905e-23 9.329713107434081e-07 6.546966493141724e-08  3.408541189155813e-23 9.341336710936811e-07 7.461957450649878e-08  3.398045827770769e-23 9.34333439632433e-07 7.576468115770671e-08  3.441108162866298e-23 9.344492349155833e-07 7.200176611505841e-08  3.51431259650847e-23 9.321561938948225e-07 6.311505589284263e-08  3.503532671923199e-23 9.324886147084259e-07 6.441844599335217e-08  3.495611265013475e-23 9.351291539824659e-07 6.77724821715298e-08  3.363534545559423e-23 9.353898147292272e-07 7.99295562086428e-08  3.371221047653201e-23 9.352947741645014e-07 7.914217708461056e-08  3.376651473986136e-23 9.36022216393403e-07 7.93804899933228e-08  3.383872478740302e-23 9.358149269466642e-07 7.852279026018195e-08  3.393666567547454e-23 9.35614587424931e-07 7.744027764440235e-08  3.462582831564255e-23 9.348449535002685e-07 7.046321850082316e-08  3.481264095151086e-23 9.351324958246077e-07 6.906810219059314e-08  3.504451890896233e-23 9.344655313918433e-07 6.6312566792281e-08  3.370089442310428e-23 9.36213795122256e-07 8.016312399036602e-08  3.426022336126544e-23 9.349607767490498e-07 7.387211842219962e-08  3.508940317980481e-23 9.340590291870607e-07 6.550178301661644e-08  3.405664321054534e-23 9.35382951667278e-07 7.612798032227399e-08  3.522554186187097e-23 9.332806146959331e-07 6.349714028984104e-08  3.509346968761806e-23 9.352733070337957e-07 6.667943301720642e-08  3.413577584913461e-23 9.350386703577457e-07 7.50709355694147e-08  3.458942268003379e-23 9.354774072564693e-07 7.142358507094758e-08  3.436207060878767e-23 9.34870350066031e-07 7.286433328720116e-08  3.51778897839769e-23 9.35002814565249e-07 6.564855191965133e-08  3.441843407407157e-23 9.355965587116149e-07 7.308286497028535e-08  3.514627998836082e-23 9.336206369616972e-07 6.455109004361525e-08  3.388140618438989e-23 9.36532587015227e-07 7.885601048161334e-08  3.395478484737059e-23 9.363710322543091e-07 7.803351948218179e-08  3.448922708284079e-23 9.354581721842899e-07 7.230683170713326e-08  3.47124335892137e-23 9.357968702626134e-07 7.063506430760145e-08  3.435903692008906e-23 9.357576983299948e-07 7.377900658975022e-08  3.40881034816421e-23 9.361606619048342e-07 7.662232162945343e-08  3.382123942155684e-23 9.367286110427585e-07 7.959396853049493e-08  3.523968691644341e-23 9.346578616573948e-07 6.474697992629963e-08  3.49938148594764e-23 9.359398789279267e-07 6.824361580510646e-08  3.479759571216331e-23 9.357836244418794e-07 6.985474627650341e-08  3.398888705570264e-23 9.370109013906723e-07 7.836622323307148e-08  3.509110706041709e-23 9.359431992753096e-07 6.737060591268429e-08  3.491650289623524e-23 9.360942201249379e-07 6.909432125980591e-08  3.376528030942448e-23 9.369482334916801e-07 8.031762585251101e-08  3.471433564461827e-23 9.36327730797015e-07 7.114879264998036e-08  3.446475011630479e-23 9.362753112427898e-07 7.334443968037448e-08  3.40329079259098e-23 9.363636857361223e-07 7.732250282919849e-08  3.416360199487034e-23 9.36132669909696e-07 7.591429948223178e-08  3.413628587746631e-23 9.368294709015817e-07 7.685714218644148e-08  3.525521607137267e-23 9.358645364087617e-07 6.581378048496098e-08  3.511816837751499e-23 9.365944460211981e-07 6.777810598337618e-08  3.532352095474638e-23 9.343776172489148e-07 6.371162563049522e-08  3.488698901546516e-23 9.364070332634654e-07 6.967297180321022e-08  3.482758340248392e-23 9.365179143606899e-07 7.031893109340685e-08  3.498023282224578e-23 9.368027660768655e-07 6.922883906966679e-08  3.406227723111376e-23 9.3690749339613e-07 7.760177530526092e-08  3.392978911738151e-23 9.371861101303843e-07 7.907373887878632e-08  3.371562680716229e-23 9.371437045781696e-07 8.096033592757175e-08  3.382161817961415e-23 9.376416105908652e-07 8.050355652931e-08  3.504251779417677e-23 9.366612191415509e-07 6.852627898159368e-08  3.453744085961593e-23 9.362327239997982e-07 7.264711242840431e-08  3.420265685978995e-23 9.367276265657664e-07 7.615748118810422e-08  3.426952632901677e-23 9.357114701386294e-07 7.453901812758255e-08  3.531806932570221e-23 9.355446104370179e-07 6.492772272766203e-08  3.518917809499956e-23 9.365744018065054e-07 6.711846309427715e-08  3.438797813921689e-23 9.363351711481337e-07 7.409580008052959e-08  3.521172557627166e-23 9.362065029824172e-07 6.654747461367854e-08  3.419971067686034e-23 9.358614553512604e-07 7.531784683028611e-08  3.373264488620474e-23 9.37617181853222e-07 8.12805279737559e-08  3.46166904854257e-23 9.36223998272781e-07 7.192456953085479e-08  3.492866999440782e-23 9.369171106795686e-07 6.980762033684425e-08  3.386952118201445e-23 9.373633249851536e-07 7.979379903607855e-08  3.449661201543203e-23 9.368728304090919e-07 7.36549723726032e-08  3.538679777645569e-23 9.352781796793451e-07 6.404224111958296e-08  3.481488077904147e-23 9.370082678753622e-07 7.092369966848317e-08  3.538067927306358e-23 9.363485475023453e-07 6.516771952177684e-08  3.51486357240052e-23 9.371953725745834e-07 6.810460707616088e-08  3.431433081062716e-23 9.364158199178495e-07 7.483980501343242e-08  3.523634896393654e-23 9.371875197392838e-07 6.730670361152085e-08  3.442304114708674e-23 9.369535658985487e-07 7.439837533259031e-08  3.528196500521481e-23 9.368614399224627e-07 6.656975102169384e-08  3.382133898615007e-23 9.380965167482208e-07 8.096097743782712e-08  3.500872878776233e-23 9.373490508205021e-07 6.951845497393955e-08  3.532388033690213e-23 9.365935707314293e-07 6.592434208632421e-08  3.426173044062817e-23 9.365805789144511e-07 7.547834602348806e-08  3.507717040188104e-23 9.372717006407182e-07 6.882463753847235e-08  3.492808052062312e-23 9.373495961499844e-07 7.024541531509425e-08  3.398042719410432e-23 9.378045508057591e-07 7.923607230724191e-08  3.47202980019721e-23 9.368537239032615e-07 7.162108161551295e-08  3.544653634559168e-23 9.36094111313049e-07 6.432009555788595e-08  3.457124827430483e-23 9.368463040839577e-07 7.295618239217319e-08  3.402483019542519e-23 9.375794514866123e-07 7.861102630768955e-08  3.424286962448567e-23 9.37354432527082e-07 7.642208276522148e-08  3.40941260340074e-23 9.374782021775769e-07 7.788561557301971e-08  3.416535976624842e-23 9.373912427111467e-07 7.715703968663588e-08  3.435989348394047e-23 9.370720304482427e-07 7.508562346671401e-08  3.391215913828191e-23 9.378916659398561e-07 7.993809142286513e-08  3.375668502674574e-23 9.380772463586101e-07 8.152405814317927e-08  3.389708612958944e-23 9.382502208463585e-07 8.043241192202908e-08  3.516805305459221e-23 9.376941967556843e-07 6.842
[...]
<PointData  Tensors="f_45"> 
<DataArray  type="Float64"  Name="f_45"  NumberOfComponents="9" format="ascii">0.0000000000000000e+00 -2.6178951258294819e-20 -9.2593375889296847e-21 -2.6178951258294819e-20 -1.2781677715218997e-03 9.4981731385186446e-04 -9.2593375889296847e-21 9.4981731385186446e-04 2.8730057359591527e-03  0.0000000000000000e+00 -1.5254149315499931e-20 1.8420290893428655e-20 -1.5254149315499931e-20 -1.2740692907293291e-03 1.1123887296820266e-03 1.8420290893428655e-20 1.1123887296820266e-03 2.8922219645860330e-03  0.0000000000000000e+00 -4.7222306069447921e-20 -1.8928940905594690e-20 -4.7222306069447921e-20 -1.6024636201073493e-03 1.0904425663645673e-03 -1.8928940905594690e-20 1.0904425663645673e-03 3.2736607976004742e-03  0.0000000000000000e+00 -4.4318599923187898e-20 3.7817478994949192e-22 -4.4318599923187898e-20 -1.6630969463496893e-03 1.2306796839838226e-03 3.7817478994949192e-22 1.2306796839838226e-03 3.3192708025463905e-03  0.0000000000000000e+00 -6.9334127119819142e-21 4.6640582485741019e-20 -6.9334127119819142e-21 -1.2732511805682598e-03 1.3134461801999984e-03 4.6640582485741019e-20 1.3134461801999984e-03 2.9350402417314433e-03  0.0000000000000000e+00 -5.8273993269403395e-20 -5.1051186106172976e-20 -5.8273993269403395e-20 -1.6183706513341535e-03 8.9711837117508830e-04 -5.1051186106172976e-20 8.9711837117508830e-04 3.2824928670888071e-03  0.0000000000000000e+00 -7.6765638145874104e-20 -5.7407189331279995e-20 -7.6765638145874104e-20 -1.9204285075390846e-03 1.0225970111256298e-03 -5.7407189331279995e-20 1.0225970111256298e-03 3.6168917183187332e-03  0.0000000000000000e+00 -6.9852553054436208e-20 -3.3623183305369506e-20 -6.9852553054436208e-20 -1.9400658983299429e-03 1.2005210281379058e-03 -3.3623183305369506e-20 1.2005210281379058e-03 3.6884576501987551e-03  0.0000000000000000e+00 -4.3933675102469855e-20 1.7928246305327401e-20 -4.3933675102469855e-20 -1.6703640073306972e-03 1.4409308329435095e-03 1.7928246305327401e-20 1.4409308329435095e-03 3.4378203684153966e-03  0.0000000000000000e+00 -2.5807488623183095e-20 4.3453280472020668e-20 -2.5807488623183095e-20 -1.5772025096214665e-03 1.4644485652747449e-03 4.3453280472020668e-20 1.4644485652747449e-03 3.2584085446166417e-03  0.0000000000000000e+00 -6.2622057959364042e-20 4.8052319695697646e-21 -6.2622057959364042e-20 -1.9335447124751595e-03 1.5088570925096728e-03 4.8052319695697646e-21 1.5088570925096728e-03 3.7365968263003420e-03  0.0000000000000000e+00 -3.8097606683399327e-20 3.7030672171818101e-20 -3.8097606683399327e-20 -1.7837532038748086e-03 1.5984231891222015e-03 3.7030672171818101e-20 1.5984231891222015e-03 3.6272088274898581e-03  0.0000000000000000e+00 -8.7103691376812751e-20 -7.7566107120633645e-20 -8.7103691376812751e-20 -1.9956242703511153e-03 9.4124311412659481e-04 -7.7566107120633645e-20 9.4124311412659481e-04 3.7062966549957833e-03  0.0000000000000000e+00 -8.5987357412223848e-20 -9.4802763643334080e-20 -8.5987357412223848e-20 -1.9460026714803542e-03 7.3620747075731530e-04 -9.4802763643334080e-20 7.3620747075731530e-04 3.5772218538652365e-03  0.0000000000000000e+00 -6.1438691437759895e-20 -1.2777219106465533e-20 -6.1438691437759895e-20 -1.8995659488889340e-03 1.3405441108434648e-03 -1.2777219106465533e-20 1.3405441108434648e-03 3.7040470159417560e-03  0.0000000000000000e+00 -9.3964711624452109e-20 -6.7009893969937236e-20 -9.3964711624452109e-20 -2.2123036955628661e-03 1.1104750163243116e-03 -6.7009893969937236e-20 1.1104750163243116e-03 3.9476789012326289e-03  0.0000000000000000e+00 -1.0196046724730356e-19 -8.8896183448062204e-20 -1.0196046724730356e-19 -2.2075235284474532e-03 9.8659901243581269e-04 -8.8896183448062204e-20 9.8659901243581269e-04 3.9453763387184981e-03  0.0000000000000000e+00 -9.7992634112407320e-20 -5.8831923570713421e-20 -9.7992634112407320e-20 -2.2773698019908761e-03 1.2612279718445926e-03 -5.8831923570713421e-20 1.2612279718445926e-03 4.0943691000675415e-03  0.0000000000000000e+00 -8.3520138596934710e-20 -2.8630642392597525e-20 -8.3520138596934710e-20 -2.2003982228422439e-03 1.4145924920118465e-03 -2.8630642392597525e-20 1.4145924920118465e-03 4.0407819482564424e-03  0.0000000000000000e+00 -6.8102855709082591e-20 9.0393867355358415e-21 -6.8102855709082591e-20 -2.0697014594167049e-03 1.6117164152736614e-03 9.0393867355358415e-21 1.6117164152736614e-03 3.9034631926516054e-03  0.0000000000000000e+00 -1.1112940116715632e-19 -8.3331113959226697e-20 -1.1112940116715632e-19 -2.4541462926641650e-03 1.1515622595531286e-03 -8.3331113959226697e-20 1.1515622595531286e-03 4.2565013881258260e-03  0.0000000000000000e+00 -1.0343659538357654e-19 -1.1027342434096147e-19 -1.0343659538357654e-19 -2.2086537143980447e-03 8.0674453204499950e-04 -1.1027342434096147e-19 8.0674453204499950e-04 3.9453041398675535e-03  0.0000000000000000e+00 -9.0794831400117503e-20 -2.2841385583307933e-20 -9.0794831400117503e-20 -2.3105326277980454e-03 1.5551941873533522e-03 -2.2841385583307933e-20 1.5551941873533522e-03 4.1967805494682502e-03  0.0000000000000000e+00 -8.4069360620688450e-20 -3.8327273905882690e-20 -8.4069360620688450e-20 -2.1428247142092649e-03 1.3062902421793108e-03 -3.8327273905882690e-20 1.3062902421793108e-03 3.9313890198320366e-03  0.0000000000000000e+00 -1.1825987015708427e-19 -7.9632664796061965e-20 -1.1825987015708427e-19 -2.5494647275518885e-03 1.2597636407128683e-03 -7.9632664796061965e-20 1.2597636407128683e-03 4.3731461382965865e-03  0.0000000000000000e+00 -3.5545232581341905e-20 6.6617114913229772e-20 -3.5545232581341905e-20 -1.8605053931218382e-03 1.8846442009393550e-03 6.6617114913229772e-20 1.8846442009393550e-03 3.7894005545690179e-03  0.0000000000000000e+00 -2.5082957367652797e-20 8.7330134524190384e-20 -2.5082957367652797e-20 -1.8250695523724049e-03 1.9913121074736071e-03 8.7330134524190384e-20 1.9913121074736071e-03 3.7826395322969166e-03  0.0000000000000000e+00 -5.0636329323767146e-20 5.5244320268354697e-20 -5.0636329323767146e-20 -2.0672962466143003e-03 1.9587008926992200e-03 5.5244320268354697e-20 1.9587008926992200e-03 4.0773218158173330e-03  0.0000000000000000e+00 -1.2060470899966447e-19 -1.1834289138668720e-19 -1.2060470899966447e-19 -2.4684447139749618e-03 8.8085741545997434e-04 -1.1834289138668720e-19 8.8085741545997434e-04 4.1894142610589017e-03  0.0000000000000000e+00 -1.1082173655108415e-19 -8.8006483277547240e-20 -1.1082173655108415e-19 -2.3900000096741306e-03 1.0728450835604021e-03 -8.8006483277547240e-20 1.0728450835604021e-03 4.1246871122306147e-03  0.0000000000000000e+00 -1.0486349443820785e-19 -5.5703652510481065e-20 -1.0486349443820785e-19 -2.4169272460247151e-03 1.3468702165453060e-03 -5.5703652510481065e-20 1.3468702165453060e-03 4.2250826959660294e-03  0.0000000000000000e+00 -4.4402820967302424e-20 4.6250190135205568e-20 -4.4402820967302424e-20 -1.8948153881880986e-03 1.7594895261460479e-03 4.6250190135205568e-20 1.7594895261460479e-03 3.7807349723952342e-03  0.0000000000000000e+00 -6.1215436743583283e-20 3.3911123076847100e-20 -6.1215436743583283e-20 -2.1151452429610191e-03 1.8410535859122808e-03 3.3911123076847100e-20 1.8410535859122808e-03 4.0836046573439842e-03  0.0000000000000000e+00 -1.2624384328735301e-19 -1.0261561180038644e-19 -1.2624384328735301e-19 -2.6135795517893104e-03 1.0920828326609461e-03 -1.0261561180038644e-19 1.0920828326609461e-03 4.3720968390306477e-03  0.0000000000000000e+00 -1.1013642855960430e-19 -1.2553911823075375e-19 -1.1013642855960430e-19 -2.2503821230088362e-03 7.2501607768262323e-04 -1.2553911823075375e-19 7.2501607768262323e-04 3.9778844682282098e-03  0.0000000000000000e+00 -6.1574761939165640e-20 1.9302250558683586e-20 -6.1574761939165640e-20 -2.0715444774009485e-03 1.6695660047137471e-03 1.9302250558683586e-20 1.6695660047137471e-03 3.9537257534360114e-03  0.0000000000000000e+00 -7.9442207221011669e-20 -2.1118470289393147e-21 -7.9442207221011669e-20 -2.2609952508650540e-03 1.6473685518498496e-03 -2.1118470289393147e-21 1.6473685518498496e-03 4.1626724291830234e-03  0.0000000000000000e+00 -1.2320123153114553e-19 -1.0986511018779750e-19 -1.2320123153114553e-19 -2.5186864495617693e-03 1.0097480105587784e-03 -1.0986511018779750e-19 1.0097480105587784e-03 4.2979402662295029e-03  0.0000000000000000e+00 -6.9749940848351877e-20 1.7639537348645700e-20 -6.9749940848351877e-20 -2.1567288335874392e-03 1.7605238016642957e-03 1.7639537348645700e-20 1.7605238016642957e-03 4.1035075511396801e-03  0.0000000000000000e+00 -1.2861363043835104e-19 -9.8959311605060453e-20 -1.2861363043835104e-19 -2.6784789670461794e-03 1.1737340881309969e-03 -9.8959311605060453e-20 1.1737340881309969e-03 4.4917424263180555e-03  0.0000000000000000e+00 -4.1896983693119717e-20 7.4553164870106418e-20 -4.1896983693119717e-20 -2.0436048394406616e-03 2.0710092779733773e-03 7.4553164870106418e-20 2.0710092779733773e-03 4.0878440126810630e-03  0.0000000000000000e+00 -1.0993761862669112e-19 -5.3188125354374671e-20 -1.0993761862669112e-19 -2.5328641579630386e-03 1.4404120112795364e-03 -5.3188125354374671e-20 1.4404120112795364e-03 4.3913801935034635e-03  0.0000000000000000e+00 -1.2399336981430919e-19 -1.3491659491801198e-19 -1.2399336981430919e-19 -2.4672453934031233e-03 7.5919536367559241e-04 -1.3491659491801198e-19 7.5919536367559241e-04 4.1824114507811212e-03  0.0000000000000000e+00 -6.5499936983540907e-20 4.3936313827251020e-20 -6.5499936983540907e-20 -2.2847624250222111e-03 2.0019135432677725e-03 4.3936313827251020e-20 2.0019135432677725e-03 4.3171612780687884e-03  0.0000000000000000e+00 -1.2526909489457609e-19 -7.7664587684825347e-20 -1.2526909489457609e-19 -2.6901063331705817e-03 1.3512311936374590e-03 -7.7664587684825347e-20 1.3512311936374590e-03 4.5350021567217048e-03  0.0000000000000000e+00 -1.0034411199134129e-19 -2.6897154406886148e-20 -1.0034411199134129e-19 -2.4657388047124073e-03 1.6339447781719091e-03 -2.6897154406886148e-20 1.6339447781719091e-03 4.4105255978206647e-03  0.0000000000000000e+00 -7.4168175495894335e-20 2.6978780603202022e-20 -7.4168175495894335e-20 -2.3047547647255923e-03 1.9219383981503222e-03 2.6978780603202022e-20 1.9219383981503222e-03 4.3265299858361757e-03  0.0000000000000000e+00 -1.3978474349445281e-19 -1.1689520319261046e-19 -1.3978474349445281e-19 -2.7985541814484630e-03 1.1075781838861250e-03 -1.1689520319261046e-19 1.1075781838861250e-03 4.6013692485243418e-03  0.0000000000000000e+00 -1.3591608000598243e-19 -9.7583449812501093e-20 -1.3591608000598243e-19 -2.7969833657448193e-03 1.2627568149330933e-03 -9.7583449812501093e-20 1.2627568149330933e-03 4.6319577193891246e-03  0.0000000000000000e+00 -1.4448655302107227e-19 -1.1542291142759817e-19 -1.4448655302107227e-19 -2.8923939437625894e-03 1.1695029574655263e-03 -1.1542291142759817e-19 1.1695029574655263e-03 4.7078358368919729e-03  0.0000000000000000e+00 -1.3657025244293013e-19 -1.2174326881365040e-19 -1.3657025244293013e-19 -2.7197924303660570e-03 1.0260754580039290e-03 -1.2174326881365040e-19 1.0260754580039290e-03 4.5048441545825725e-03  0.0000000000000000e+00 -8.9460558689843564e-20 -7.9692204053940832e-21 -8.9460558689843564e-20 -2.3934129312197915e-03 1.7204391062111740e-03 -7.9692204053940832e-21 1.7204391062111740e-03 4.3662737007150749e-03  0.0000000000000000e+00 -8.2746359947450933e-20 9.7183055963329840e-21 -8.2746359947450933e-20 -2.3468680504737092e-03 1.8224819270320437e-03 9.7183055963329840e-21 1.8224819270320437e-03 4.3261365713860196e-03  0.0000000000000000e+00 -1.1564728509970236e-19 -5.0709204033083595e-20 -1.1564728509970236e-19 -2.6272034488631700e-03 1.5485088489030139e-03 -5.0709204033083595e-20 1.5485088489030139e-03 4.5544006758939893e-03  0.0000000000000000e+00 -1.3384878295613972e-19 -1.3942294611749236e-19 -1.3384878295613972e-19 -2.6387622551279806e-03 8.3133847235802329e-04 -1.3942294611749236e-19 8.3133847235802329e-04 4.4018543963894544e-03  0.0000000000000000e+00 -1.3382554516748518e-19 -1.2901918744853987e-19 -1.3382554516748518e-19 -2.6729856896649555e-03 9.2648954646717008e-04 -1.2901918744853987e-19 9.2648954646717008e-04 4.4393811392711060e-03  0.0000000000000000e+00 -1.5087091313864194e-19 -1.1759589453607808e-19 -1.5087091313864194e-19 -2.9873285637564695e-03 1.2334437728383123e-03 -1.1759589453607808e-19 1.2334437728383123e-03 4.8547866639162465e-03  0.0000000000000000e+00 -5.2630184139113667e-20 6.8913752912720287e-20 -5.2630184139113667e-20 -2.2112133661123020e-03 2.1381092207432622e-03 6.8913752912720287e-20 2.1381092207432622e-03 4.2978908891359111e-03  0.0000000000000000e+00 -6.2894271428387104e-20 5.4738095053517112e-20 -6.2894271428387104e-20 -2.2701676098251340e-03 2.1154313257313933e-03 5.4738095053517112e-20 2.1154313257313933e-03 4.3819539338693361e-03  0.0000000000000000e+00 -7.0449361845484954e-20 4.8829530369754229e-20 -7.0449361845484954e-20 -2.3799009561826239e-03 2.1458220062339365e-03 4.8829530369754229e-20 2.1458220062339365e-03 4.5228074705157975e-03  0.0000000000000000e+00 -7.4628715427894611e-20 3.6186907804905624e-20 -7.4628715427894611e-20 -2.4083325365860651e-03 2.0603358259832149e-03 3.6186907804905624e-20 2.0603358259832149e-03 4.5327273905599432e-03  0.0000000000000000e+00 -8.5234861336955321e-20 1.9966923260567672e-20 -8.5234861336955321e-20 -2.4776407861674668e-03 1.9870224192043307e-03 1.9966923260567672e-20 1.9870224192043307e-03 4.5565387529276427e-03  0.0000000000000000e+00 -1.3165390110416952e-19 -7.8833502882197973e-20 -1.3165390110416952e-19 -2.7960529314261387e-03 1.4330292464732211e-03 -7.8833502882197973e-20 1.4330292464732211e-03 4.7105837213723845e-03  0.0000000000000000e+00 -1.4438281599634616e-19 -1.0146908860153083e-19 -1.4438281599634616e-19 -2.9271327032309911e-03 1.3274023176255124e-03 -1.0146908860153083e-19 1.3274023176255124e-03 4.8088723516643752e-03  0.0000000000000000e+00 -1.5025409016584558e-19 -1.2703406532945957e-19 -1.5025409016584558e-19 -2.9506464799120449e-03 1.1166647907930797e-03 -1.2703406532945957e-19 1.1166647907930797e-03 4.7656812806951892e-03  0.0000000000000000e+00 -6.3021069335121587e-20 5.9720066427851306e-20 -6.3021069335121587e-20 -2.3685649537793143e-03 2.1889646947624688e-03 5.9720066427851306e-20 2.1889646947624688e-03 4.5353866101634169e-03  0.0000000000000000e+00 -1.0863682257545557e-19 -2.9393432398616922e-20 -1.0863682257545557e-19 -2.6123991054305506e-03 1.6983852214423072e-03 -2.9393432398616922e-20 1.6983852214423072e-03 4.5816475384274705e-03  0.0000000000000000e+00 -1.4826522914022524e-19 -1.3208919974784951e-19 -1.4826522914022524e-19 -2.9057602730141814e-03 1.0402511134591753e-03 -1.3208919974784951e-19 1.0402511134591753e-03 4.6948610601571430e-03  0.0000000000000000e+00 -9.4951014219385605e-20 5.0181305075167577e-22 -9.4951014219385605e-20 -2.5205863420154542e-03 1.8815812636836650e-03 5.0181305075167577e-22 1.8815812636836650e-03 4.5642236000818966e-03  0.0000000000000000e+00 -1.4533040809636491e-19 -1.4685307886075897e-19 -1.4533040809636491e-19 -2.8335609764823266e-03 8.6811026351494159e-04 -1.4685307886075897e-19 8.6811026351494159e-04 4.5972115014607596e-03  0.0000000000000000e+00 -1.5802854445946823e-19 -1.3313337154740418e-19 -1.5802854445946823e-19 -3.0745833170024821e-03 1.1459342001330327e-03 -1.3313337154740418e-19 1.1459342001330327e-03 4.9179801514683151e-03  0.0000000000000000e+00 -9.8736166372268559e-20 -1.2127760053823402e-20 -9.8736166372268559e-20 -2.5243343702381145e-03 1.7899650318704788e-03 -1.2127760053823402e-20 1.7899650318704788e-03 4.5440660882873551e-03  0.0000000000000000e+00 -1.3501939420492397e-19 -7.2049916612218433e-20 -1.3501939420492397e-19 -2.8820945510653587e-03 1.5212659489995440e-03 -7.2049916612218433e-20 1.5212659489995440e-03 4.7902691857755544e-03  0.0000000000000000e+00 -1.1700706672163981e-19 -4.3254485681099405e-20 -1.1700706672163981e-19 -2.6817370717096447e-03 1.6297313741124419e-03 -4.3254485681099405e-20 1.6297313741124419e-03 4.6125914339676640e-03  0.0000000000000000e+00 -1.5860232522853359e-19 -1.4252149360384554e-19 -1.5860232522853359e-19 -3.0598767123049841e-03 1.0598676827285867e-03 -1.4252149360384554e-19 1.0598676827285867e-03 4.8899255685109517e-03  0.0000000000000000e+00 -1.2503163488660383e-19 -5.1969444881178782e-20 -1.2503163488660383e-19 -2.8019609502172435e-03 1.6366840493815447e-03 -5.1969444881178782e-20 1.6366840493815447e-03 4.7591576422470975e-03  0.0000000000000000e+00 -1.4590752189638427e-19 -1.3815803478513309e-19 -1.4590752189638427e-19 -2.8618344555630644e-03 9.5901478626029982e-04 -1.3815803478513309e-19 9.5901478626029982e-04 4.6402616790176526e-03  0.0000000000000000e+00 -8.3661333040071010e-20 3.1068836168473801e-20 -8.3661333040071010e-20 -2.5333825821580369e-03 2.1140778618110967e-03 3.1068836168473801e-20 2.1140778618110967e-03 4.6947433165971733e-03  0.0000000000000000e+00 -9.1318378648070471e-20 1.8889499532105404e-20 -9.1318378648070471e-20 -2.5798584922422179e-03 2.0492753698103110e-03 1.8889499532105404e-20 2.0492753698103110e-03 4.6930805954406001e-03  0.0000000000000000e+00 -1.2864179014607801e-19 -6.3801367863987931e-20 -1.2864179014607801e-19 -2.8203710868151483e-03 1.5665584429607861e-03 -6.3801367863987931e-20 1.5665584429607861e-03 4.7854267662239894e-03  0.0000000000000000e+00 -1.4428729781237116e-19 -9.2163964022153826e-20 -1.4428729781237116e-19 -2.9891819965479692e-03 1.4356939571577710e-03 -9.2163964022153826e-20 1.4356939571577710e-03 4.9215994043239749e-03  0.0000000000000000e+00 -1.2383969704030383e-19 -4.5918525600194561e-20 -1.2383969704030383e-19 -2.8002556330880752e-03 1.7074900419067477e-03 -4.5918525600194561e-20 1.7074900419067477e-03 4.8115326822533383e-03  0.0000000000000000e+00 -1.0254321795555391e-19 -2.0299081770392075e-21 -1.0254321795555391e-19 -2.6631461898889157e-03 1.9299264875467326e-03 -2.0299081770392075e-21 1.9299264875467326e-03 4.7123123471247775e-03  0.0000000000000000e+00 -7.8983591579192544e-20 4.1218710647977085e-20 -7.8983591579192544e-20 -2.5130519612524787e-03 2.1791483571442453e-03 4.1218710647977085e-20 2.1791483571442453e-03 4.7059765014638563e-03  0.0000000000000000e+00 -1.5745268658774434e-19 -1.4851232328041494e-19 -1.5745268658774434e-19 -3.0360379566167317e-03 9.7823484928098942e-04 -1.4851232328041494e-19 9.7823484928098942e-04 4.8314523877408446e-03  0.0000000000000000e+00 -1.5745935320400018e-19 -1.2076490667924549e-19 -1.5745935320400018e-19 -3.1084830110933788e-03 1.2635044349153992e-03 -1.2076490667924549e-19 1.2635044349153992e-03 4.9744634981424823e-03  0.0000000000000000e+00 -1.4762013372835922e-19 -9.6713610295089724e-20 -1.4762013372835922e-19 -3.0143674161177436e-03 1.3997952823771741e-03 -9.6713610295089724e-20 1.3997952823771741e-03 4.8969075810129572e-03  0.0000000000000000e+00 -9.8157705676030294e-20 1.4042918281398254e-20 -9.8157705676030294e-20 -2.6899944389092391e-03 2.0930251627955150e-03 1.4042918281398254e-20 2.0930251627955150e-03 4.8548180115185920e-03  0.0000000000000000e+00 -1.6380349790586013e-19 -1.3347549113554143e-19 -1.6380349790586013e-19 -3.1528845755352561e-03 1.2052138027478334e-03 -1.3347549113554143e-19 1.2052138027478334e-03 5.0169713810720761e-03  0.0000000000000000e+00 -1.5773567986242520e-19 -1.1565536877479260e-19 -1.5773567986242520e-19 -3.1246537097680302e-03 1.3348669617802358e-03 -1.1565536877479260e-19 1.3348669617802358e-03 5.0363361399930360e-03  0.0000000000000000e+00 -7.1848441998970647e-20 5.2337094026249665e-20 -7.1848441998970647e-20 -2.5008537321848201e-03 2.2200210136040133e-03 5.2337094026249665e-20 2.2200210136040133e-03 4.7037680243208185e-03  0.0000000000000000e+00 -1.4823213908997193e-19 -8.9948014731873997e-20 -1.4823213908997193e-19 -3.0420643657806277e-03 1.5093088809533632e-03 -8.9948014731873997e-20 1.5093088809533632e-03 5.0107286847238643e-03  0.0000000000000000e+00 -1.3236424083799704e-19 -5.8783210574536042e-20 -1.3236424083799704e-19 -2.9160587789882867e-03 1.6651741062318293e-03 -5.8783210574536042e-20 1.6651741062318293e-03 4.9208889895475212e-03  0.0000000000000000e+00 -9.9377123787960670e-20 5.4489860931530526e-21 -9.9377123787960670e-20 -2.6545976664278360e-03 2.0065073160928813e-03 5.44