<?xml version="1.0"?>
<VTKFile type="UnstructuredGrid"  version="0.1"  >
<UnstructuredGrid>
<Piece  NumberOfPoints="10255" NumberOfCells="20084">
<Points>
<DataArray  type="Float64"  NumberOfComponents="3"  format="ascii">3.844048242159513e-23 9.668024050202114e-07 6.806132040053538e-08  3.847771034822294e-23 9.669985028792288e-07 6.792209890657517e-08  3.846275168462127e-23 9.667995157296344e-07 6.785784742062565e-08  3.849515485966175e-23 9.66881460186319e-07 6.764793002323432e-08  3.826261808533084e-23 9.671368147404781e-07 6.999778963784674e-08  3.827047817448044e-23 9.673487965730955e-07 7.013897408133369e-08  3.829712155069505e-23 9.67289615477493e-07 6.983981078734716e-08  3.827842198569474e-23 9.6702762487079e-07 6.97462508885789e-08  3.830685169615466e-23 9.669963435244612e-07 6.945889747538301e-08  3.833147330156461e-23 9.6697145459291e-07 6.92122368379328e-08  3.829799937986237e-23 9.667855146597201e-07 6.93278031873525e-08  3.835151956772123e-23 9.672196735068342e-07 6.927989503827068e-08  3.831765008692744e-23 9.672173958076393e-07 6.958268650124011e-08  3.823134268333262e-23 9.670860999899879e-07 7.022877866492658e-08  3.851763327231582e-23 9.671399826065241e-07 6.770398490173397e-08  3.844872647732786e-23 9.669672589419473e-07 6.815191846961932e-08  3.843582551562757e-23 9.666514244242841e-07 6.795228548456842e-08  3.823260119216773e-23 9.67300062859279e-07 7.043140589437603e-08  3.820536825621054e-23 9.671037125959562e-07 7.048034811151126e-08  3.853792223775423e-23 9.670839790148847e-07 6.746523455571831e-08  3.823838481073238e-23 9.669262018540541e-07 7.00054506843259e-08  3.852378275260632e-23 9.668509967921981e-07 6.735960949311835e-08  3.831298354381371e-23 9.675249312272394e-07 6.993225440449647e-08  3.827228454833497e-23 9.668080369235606e-07 6.958194406256246e-08  3.848314957974162e-23 9.666363215251921e-07 6.75109253104571e-08  3.855876557599983e-23 9.670435346494902e-07 6.723705008961174e-08  3.855895812834488e-23 9.668573543793815e-07 6.704913546216421e-08  3.845718954166323e-23 9.666406440882543e-07 6.774907510915194e-08  3.819018927463628e-23 9.671885223965661e-07 7.070187802364459e-08  3.840393858508891e-23 9.66582046434885e-07 6.817011943215308e-08  3.841667390037991e-23 9.668187823471801e-07 6.829214582205028e-08  3.835168078156165e-23 9.673946863482041e-07 6.945345579445738e-08  3.833439869990552e-23 9.668049949853972e-07 6.901942758466391e-08  3.836743775552862e-23 9.670973061213436e-07 6.901414936342462e-08  3.833317083353102e-23 9.6745123705859e-07 6.967672929495003e-08  3.850537837935407e-23 9.672590983930806e-07 6.793348295104243e-08  3.838097640111035e-23 9.66977078191895e-07 6.877197615558203e-08  3.820285047731837e-23 9.668149747664341e-07 7.021428841815029e-08  3.838331428892171e-23 9.674856659373121e-07 6.925950607964695e-08  3.824765165955912e-23 9.66815075548659e-07 6.981085602508482e-08  3.835771632846801e-23 9.667253825637828e-07 6.872978863643911e-08  3.822697846726142e-23 9.674503969019602e-07 7.063238494064292e-08  3.839376310420903e-23 9.673528814796281e-07 6.903260706069408e-08  3.819601179172463e-23 9.669304191413517e-07 7.039133019685132e-08  3.821376019694659e-23 9.666854386434889e-07 6.998648627670042e-08  3.837038278196857e-23 9.676018903122847e-07 6.949220711441053e-08  3.837884713353962e-23 9.666509173959273e-07 6.846499409689057e-08  3.835182831277372e-23 9.676902387322564e-07 6.974767933548623e-08  3.817293324540677e-23 9.669384667312641e-07 7.060725085195835e-08  3.839818474268019e-23 9.668918098756168e-07 6.853170887794066e-08  3.855504150302931e-23 9.673252921870794e-07 6.75523510944855e-08  3.853509733135734e-23 9.673458283233864e-07 6.775252835901275e-08  3.841981839919249e-23 9.664716878022997e-07 6.791672814980867e-08  3.826007096790913e-23 9.665915923766999e-07 6.947550966821106e-08  3.829090697536132e-23 9.665855197196831e-07 6.919169094785173e-08  3.823453767808358e-23 9.666200788689649e-07 6.973397958956387e-08  3.844421604978596e-23 9.66440006792875e-07 6.766529264014101e-08  3.847204503616063e-23 9.671672698685726e-07 6.814189449050439e-08  3.816785278456588e-23 9.66734969428055e-07 7.044951427184908e-08  3.853304329209096e-23 9.674903202653027e-07 6.791552144187833e-08  3.859258127140898e-23 9.671449879196127e-07 6.703391865324638e-08  3.86038071682052e-23 9.670175866532766e-07 6.680540349765351e-08  3.836238504346035e-23 9.664162595860557e-07 6.837861361251244e-08  3.840860029587257e-23 9.672422913669012e-07 6.878837540627293e-08  3.856338911215014e-23 9.675297364428832e-07 6.768160677163732e-08  3.843588311980644e-23 9.670409665772654e-07 6.834130878523278e-08  3.833923268945905e-23 9.664820219358116e-07 6.865291382797435e-08  3.831778228088765e-23 9.665490014466125e-07 6.891310144287344e-08  3.814903584378647e-23 9.669512017886719e-07 7.083523456743073e-08  3.815444185441888e-23 9.671458923815153e-07 7.098123214533488e-08  3.819233248516805e-23 9.673835321967239e-07 7.087758349949779e-08  3.829493150785181e-23 9.675846055566055e-07 7.015452701872513e-08  3.826217979264891e-23 9.67517160841688e-07 7.038208352857474e-08  3.858228399677651e-23 9.673003103820363e-07 6.728199072006539e-08  3.862937911340422e-23 9.672707607843613e-07 6.68282460229993e-08  3.864125381110167e-23 9.671868681519287e-07 6.663739562231604e-08  3.953330702206321e-23 9.891795424637936e-07 8.059516891721879e-08  3.954235706843712e-23 9.890355852315782e-07 8.036969611404897e-08  3.950403264943381e-23 9.889468291076021e-07 8.062613566835783e-08  3.94973099082713e-23 9.891076516889951e-07 8.084751131893965e-08  3.946853893286052e-23 9.888712691696455e-07 8.087027470786821e-08  3.951200604316462e-23 9.887860506967354e-07 8.039353931142125e-08  3.955432016789495e-23 9.889041309280247e-07 8.01304877899745e-08  3.956902937136678e-23 9.887936485164883e-07 7.988751665188885e-08  3.952684913003707e-23 9.886627881296539e-07 8.013658210332421e-08  3.94759362160976e-23 9.887168303575267e-07 8.064920709168922e-08  3.945956186996179e-23 9.890430081010247e-07 8.112287183349854e-08  3.943352515702075e-23 9.88776471694617e-07 8.109085328848934e-08  3.954268678023316e-23 9.885607132974852e-07 7.989185440011241e-08  3.94399040341712e-23 9.886405611070307e-07 8.089748688338737e-08  3.948216829374343e-23 9.885417441750713e-07 8.041798734410678e-08  3.959079770704154e-23 9.88710536534797e-07 7.960833293333076e-08  3.966279752076215e-23 9.88602179779903e-07 7.885145950995099e-08  3.969324389136989e-23 9.88617012076978e-07 7.859205528037846e-08  3.965626451454869e-23 9.884068546473727e-07 7.871497846611792e-08  3.944510570002654e-23 9.88496462664786e-07 8.070653600032705e-08  3.963277302582222e-23 9.887672356166279e-07 7.928695195512288e-08  3.95939985956376e-23 9.885286875015358e-07 7.939765285869269e-08  3.940610246418789e-23 9.885506634720076e-07 8.11120467243271e-08  3.955641062893041e-23 9.884501721640697e-07 7.965769982693882e-08  3.966762204717117e-23 9.887950432917326e-07 7.900086755110492e-08  3.962850953194374e-23 9.885678543747835e-07 7.912597285216337e-08  3.950183351618427e-23 9.8843034427285e-07 8.012945886497203e-08  3.95160993136316e-23 9.883320294362482e-07 7.990264914823441e-08  3.968650329297324e-23 9.884270763208198e-07 7.846283343707506e-08  3.941008928453145e-23 9.884163554354434e-07 8.094182860253557e-08  3.962431456735118e-23 9.883773950478923e-07 7.897329840722394e-08  3.971488282188316e-23 9.884230719834517e-07 7.820320902805972e-08  3.967942245529275e-23 9.882375517623335e-07 7.833708739446747e-08  3.952804208618856e-23 9.882281852076592e-07 7.969123398757085e-08  3.95617592674575e-23 9.88312479028062e-07 7.947183043797603e-08  3.959338149888106e-23 9.883504359436013e-07 7.922495961420378e-08  3.944608100249588e-23 9.883548797685029e-07 8.055616836036899e-08  3.965101833878736e-23 9.882279805352573e-07 7.858335770441016e-08  3.947721808733972e-23 9.88199328232216e-07 8.012015889668181e-08  3.946268836069749e-23 9.882866445387155e-07 8.033834734616479e-08  3.97033961091929e-23 9.882103996036781e-07 7.809399975826917e-08  3.973993359343305e-23 9.884021237809149e-07 7.79566235346881e-08  3.937480819176745e-23 9.883329245796995e-07 8.117618157924199e-08  3.94901158908498e-23 9.880927187342763e-07 7.989737631257835e-08  3.941416346171646e-23 9.882716987292608e-07 8.076047497064845e-08  3.961845715975573e-23 9.881826574388997e-07 7.883131963555974e-08  3.945237277666738e-23 9.879580754138897e-07 8.010269274212722e-08  3.953477614883753e-23 9.881243293723525e-07 7.952672310819092e-08  3.950330301602644e-23 9.880003366207952e-07 7.968621513503403e-08  3.964774331540478e-23 9.8806811094983e-07 7.845298690715369e-08  3.97275425334606e-23 9.881845458003283e-07 7.785065430025071e-08  3.958661184191572e-23 9.881478116267631e-07 7.908331094653868e-08  3.937877544124881e-23 9.881838171828358e-07 8.099134037580647e-08  3.955925455856533e-23 9.881370178745037e-07 7.931892969648473e-08  3.966557826672814e-23 9.880203691225144e-07 7.824460211956996e-08  3.942375042586958e-23 9.881500989773127e-07 8.05525235223251e-08  3.94679314694925e-23 9.878697800372506e-07 7.987425711906895e-08  3.961264388966963e-23 9.879711670549926e-07 7.867219053363974e-08  3.943864860065279e-23 9.880565823686975e-07 8.032481608490566e-08  3.934155539547587e-23 9.882868312539529e-07 8.142960281547089e-08  3.934292586662904e-23 9.881052450431472e-07 8.12356724979158e-08  3.952058660148092e-23 9.879355793583202e-07 7.946578117453421e-08  3.938616452956326e-23 9.880410503124971e-07 8.078201851470861e-08  3.939841727696638e-23 9.879215961802921e-07 8.055220144522568e-08  3.968808479545972e-23 9.879784176287742e-07 7.799992983701197e-08  3.957697056454276e-23 9.879362707920605e-07 7.895861101820457e-08  3.930580782493378e-23 9.880556178357165e-07 8.152037488798016e-08  3.962987653108e-23 9.878776521960197e-07 7.842345783979816e-08  3.948373546682379e-23 9.877823561914973e-07 7.964448352033135e-08  3.94294458385861e-23 9.87732373659242e-07 8.008349848707879e-08  3.94143142459661e-23 9.878240034690913e-07 8.03114
[...]
<PointData  Tensors="f_45"> 
<DataArray  type="Float64"  Name="f_45"  NumberOfComponents="9" format="ascii">0.0000000000000000e+00 9.7063795343025262e-19 -4.9947042466031291e-19 9.7063795343025262e-19 1.7427488958484224e-02 -5.0710545468814661e-04 -4.9947042466031291e-19 -5.0710545468814661e-04 8.0414183071883041e-03  0.0000000000000000e+00 9.7175710009802168e-19 -4.9939403145398746e-19 9.7175710009802168e-19 1.7443622061038198e-02 -5.2000879773110283e-04 -4.9939403145398746e-19 -5.2000879773110283e-04 8.0182630949534577e-03  0.0000000000000000e+00 9.7079689809643603e-19 -4.9794397911205298e-19 9.7079689809643603e-19 1.7428005924108283e-02 -5.0084844519770609e-04 -4.9794397911205298e-19 -5.0084844519770609e-04 8.0287806546959859e-03  0.0000000000000000e+00 9.7145454074429988e-19 -4.9668983890955268e-19 9.7145454074429988e-19 1.7436566781400237e-02 -5.0018940495752515e-04 -4.9668983890955268e-19 -5.0018940495752515e-04 8.0107923332245479e-03  0.0000000000000000e+00 9.7044281096645657e-19 -5.1704728852916904e-19 9.7044281096645657e-19 1.7441562986392808e-02 -6.0509809429812572e-04 -5.1704728852916904e-19 -6.0509809429812572e-04 8.1444802562331067e-03  0.0000000000000000e+00 9.7119441878976527e-19 -5.1900379575201398e-19 9.7119441878976527e-19 1.7455079594195455e-02 -6.2791823216453259e-04 -5.1900379575201398e-19 -6.2791823216453259e-04 8.1341084363508766e-03  0.0000000000000000e+00 9.7122183903477688e-19 -5.1613745257508145e-19 9.7122183903477688e-19 1.7450915252182737e-02 -6.1046597742208048e-04 -5.1613745257508145e-19 -6.1046597742208048e-04 8.1220357988144327e-03  0.0000000000000000e+00 9.7021459760579187e-19 -5.1435673879764779e-19 9.7021459760579187e-19 1.7431300523615193e-02 -5.8664553838351789e-04 -5.1435673879764779e-19 -5.8664553838351789e-04 8.1390680693447046e-03  0.0000000000000000e+00 9.7043784219428889e-19 -5.1162993266427539e-19 9.7043784219428889e-19 1.7431469173176652e-02 -5.7240616828127316e-04 -5.1162993266427539e-19 -5.7240616828127316e-04 8.1222780046255362e-03  0.0000000000000000e+00 9.7059661603915523e-19 -5.0979343308739954e-19 9.7059661603915523e-19 1.7431912297891587e-02 -5.6489463498240089e-04 -5.0979343308739954e-19 -5.6489463498240089e-04 8.1066347265833678e-03  0.0000000000000000e+00 9.6944353899877787e-19 -5.0938910462219245e-19 9.6944353899877787e-19 1.7414366399759341e-02 -5.5012456674651043e-04 -5.0938910462219245e-19 -5.5012456674651043e-04 8.1256650377638708e-03  0.0000000000000000e+00 9.7158586635141596e-19 -5.1120288333887873e-19 9.7158586635141596e-19 1.7448998402165898e-02 -5.8631033253583745e-04 -5.1120288333887873e-19 -5.8631033253583745e-04 8.0899283750595387e-03  0.0000000000000000e+00 9.7116308178669937e-19 -5.1375932893251427e-19 9.7116308178669937e-19 1.7446117808080731e-02 -5.9742833321629462e-04 -5.1375932893251427e-19 -5.9742833321629462e-04 8.1090095878414131e-03  0.0000000000000000e+00 9.6962022045194961e-19 -5.1879694622401731e-19 9.6962022045194961e-19 1.7432399028781541e-02 -6.0715490419408933e-04 -5.1879694622401731e-19 -6.0715490419408933e-04 8.1662311516855941e-03  0.0000000000000000e+00 9.7242784241870243e-19 -4.9808932208443995e-19 9.7242784241870243e-19 1.7454457502262186e-02 -5.2062321431664191e-04 -4.9808932208443995e-19 -5.2062321431664191e-04 7.9947782854983777e-03  0.0000000000000000e+00 9.7128328985440664e-19 -5.0113850424881635e-19 9.7128328985440664e-19 1.7434709017216957e-02 -5.2591628755678142e-04 -5.0113850424881635e-19 -5.2591628755678142e-04 8.0382513806927774e-03  0.0000000000000000e+00 9.7002072284147378e-19 -4.9808546866545061e-19 9.7002072284147378e-19 1.7416620680433162e-02 -4.9123032532133188e-04 -4.9808546866545061e-19 -4.9123032532133188e-04 8.0479686569667492e-03  0.0000000000000000e+00 9.7059236577389378e-19 -5.2169171401675352e-19 9.7059236577389378e-19 1.7447012975726785e-02 -6.3552211937195342e-04 -5.2169171401675352e-19 -6.3552211937195342e-04 8.1645428882317003e-03  0.0000000000000000e+00 9.6955306619038291e-19 -5.2093436878556432e-19 9.6955306619038291e-19 1.7429835836156798e-02 -6.1835640367452873e-04 -5.2093436878556432e-19 -6.1835640367452873e-04 8.1836859835296184e-03  0.0000000000000000e+00 9.7248938270227669e-19 -4.9614073694887848e-19 9.7248938270227669e-19 1.7452673470362789e-02 -5.0992551456746930e-04 -4.9614073694887848e-19 -5.0992551456746930e-04 7.9839637389255980e-03  0.0000000000000000e+00 9.6914186941303235e-19 -5.1572465474135776e-19 9.6914186941303235e-19 1.7419391332676608e-02 -5.8372006900456045e-04 -5.1572465474135776e-19 -5.8372006900456045e-04 8.1621458288185424e-03  0.0000000000000000e+00 9.7146597995883157e-19 -4.9426544832506044e-19 9.7146597995883157e-19 1.7433452239489174e-02 -4.8834997103800956e-04 -4.9426544832506044e-19 -4.8834997103800956e-04 7.9941178754146594e-03  0.0000000000000000e+00 9.7221404520218884e-19 -5.1841483411545822e-19 9.7221404520218884e-19 1.7471611378906914e-02 -6.3774234089969417e-04 -5.1841483411545822e-19 -6.3774234089969417e-04 8.1056866010649747e-03  0.0000000000000000e+00 9.6920061366170249e-19 -5.1173655620797195e-19 9.6920061366170249e-19 1.7414469284530866e-02 -5.6012414242468051e-04 -5.1173655620797195e-19 -5.6012414242468051e-04 8.1434747761548690e-03  0.0000000000000000e+00 9.7046095178153095e-19 -4.9455928925598133e-19 9.7046095178153095e-19 1.7420690375623347e-02 -4.7579349703423703e-04 -4.9455928925598133e-19 -4.7579349703423703e-04 8.0191810768142080e-03  0.0000000000000000e+00 9.7282151707897980e-19 -4.9445859822413882e-19 9.7282151707897980e-19 1.7452908595777212e-02 -5.0199766232215547e-04 -4.9445859822413882e-19 -5.0199766232215547e-04 7.9752648016884597e-03  0.0000000000000000e+00 9.7177441071171074e-19 -4.9206476794762515e-19 9.7177441071171074e-19 1.7439021390283933e-02 -4.7764690896252171e-04 -4.9206476794762515e-19 -4.7764690896252171e-04 7.9758671099547599e-03  0.0000000000000000e+00 9.7021924256649136e-19 -4.9658631399523795e-19 9.7021924256649136e-19 1.7416622795990346e-02 -4.8439791965034705e-04 -4.9658631399523795e-19 -4.8439791965034705e-04 8.0382011965351632e-03  0.0000000000000000e+00 9.6991004125966257e-19 -5.2341857265420422e-19 9.6991004125966257e-19 1.7439116426206817e-02 -6.3530529870842211e-04 -5.2341857265420422e-19 -6.3530529870842211e-04 8.1916897330324007e-03  0.0000000000000000e+00 9.6963805066258748e-19 -4.9950333917452420e-19 9.6963805066258748e-19 1.7410104092849214e-02 -4.9416797322642165e-04 -4.9950333917452420e-19 -4.9416797322642165e-04 8.0672584239982695e-03  0.0000000000000000e+00 9.7061948568683568e-19 -5.0149215443843333e-19 9.7061948568683568e-19 1.7424794140651446e-02 -5.1765040583456564e-04 -5.0149215443843333e-19 -5.1765040583456564e-04 8.0591107833418735e-03  0.0000000000000000e+00 9.7230893746273594e-19 -5.1366245548224067e-19 9.7230893746273594e-19 1.7461601351353776e-02 -6.0916802748872526e-04 -5.1366245548224067e-19 -6.0916802748872526e-04 8.0889434398677667e-03  0.0000000000000000e+00 9.6991761326128789e-19 -5.0712021702638888e-19 9.6991761326128789e-19 1.7419168895487520e-02 -5.4113270573053732e-04 -5.0712021702638888e-19 -5.4113270573053732e-04 8.1065137814356689e-03  0.0000000000000000e+00 9.7118192571755670e-19 -5.0819347140502701e-19 9.7118192571755670e-19 1.7440601831395449e-02 -5.6466969905180620e-04 -5.0819347140502701e-19 -5.6466969905180620e-04 8.0801167193909392e-03  0.0000000000000000e+00 9.7222099139846837e-19 -5.1579143630972515e-19 9.7222099139846837e-19 1.7465451440233263e-02 -6.2117019602275249e-04 -5.1579143630972515e-19 -6.2117019602275249e-04 8.0978570275187130e-03  0.0000000000000000e+00 9.7293848113274952e-19 -5.0016560266593209e-19 9.7293848113274952e-19 1.7461002214710249e-02 -5.3850373720417809e-04 -5.0016560266593209e-19 -5.3850373720417809e-04 7.9990743223775362e-03  0.0000000000000000e+00 9.7073865671218083e-19 -5.0609988383452089e-19 9.7073865671218083e-19 1.7433129407743133e-02 -5.4718270574789958e-04 -5.0609988383452089e-19 -5.4718270574789958e-04 8.0768631843330940e-03  0.0000000000000000e+00 9.6853385122448835e-19 -5.1715255350362838e-19 9.6853385122448835e-19 1.7412282163243930e-02 -5.8186503948140674e-04 -5.1715255350362838e-19 -5.8186503948140674e-04 8.1877347126853590e-03  0.0000000000000000e+00 9.7295495590816445e-19 -5.1202817881303170e-19 9.7295495590816445e-19 1.7471114482631795e-02 -6.0813308040966511e-04 -5.1202817881303170e-19 -6.0813308040966511e-04 8.0636973252777178e-03  0.0000000000000000e+00 9.6901659790829281e-19 -5.1373538201861813e-19 9.6901659790829281e-19 1.7412069795182190e-02 -5.6853808044576338e-04 -5.1373538201861813e-19 -5.6853808044576338e-04 8.1617391010520030e-03  0.0000000000000000e+00 9.6973923267389283e-19 -5.0437147843923703e-19 9.6973923267389283e-19 1.7414153182760805e-02 -5.2364297869426848e-04 -5.0437147843923703e-19 -5.2364297869426848e-04 8.0937786569385134e-03  0.0000000000000000e+00 9.7112280949192210e-19 -5.2416535347294003e-19 9.7112280949192210e-19 1.7461632345976134e-02 -6.5697983731552890e-04 -5.2416535347294003e-19 -6.5697983731552890e-04 8.1611248335511435e-03  0.0000000000000000e+00 9.7231955387044121e-19 -5.0985278617783666e-19 9.7231955387044121e-19 1.7461201336964910e-02 -5.8846322779652763e-04 -5.0985278617783666e-19 -5.8846322779652763e-04 8.0623154008022738e-03  0.0000000000000000e+00 9.6920377941675172e-19 -5.1924772516605549e-19 9.6920377941675172e-19 1.7423598658653425e-02 -6.0020803775654851e-04 -5.1924772516605549e-19 -6.0020803775654851e-04 8.1895438314263432e-03  0.0000000000000000e+00 9.6816126909845716e-19 -5.1476472749533509e-19 9.6816126909845716e-19 1.7401626681717984e-02 -5.6358258673364764e-04 -5.1476472749533509e-19 -5.6358258673364764e-04 8.1852280075280920e-03  0.0000000000000000e+00 9.7333640211096320e-19 -5.1475454861513352e-19 9.7333640211096320e-19 1.7480550847713529e-02 -6.2842349156418901e-04 -5.1475454861513352e-19 -6.2842349156418901e-04 8.0696655738921111e-03  0.0000000000000000e+00 9.6958164262621345e-19 -5.0205244135463065e-19 9.6958164262621345e-19 1.7412089726543671e-02 -5.0900238222854877e-04 -5.0205244135463065e-19 -5.0900238222854877e-04 8.0805083579679662e-03  0.0000000000000000e+00 9.7333605339184518e-19 -5.1728000444976963e-19 9.7333605339184518e-19 1.7485812178613013e-02 -6.4338075762198081e-04 -5.1728000444976963e-19 -6.4338075762198081e-04 8.0799779967367889e-03  0.0000000000000000e+00 9.6910557339775440e-19 -5.2130163064766779e-19 9.6910557339775440e-19 1.7422104709317980e-02 -6.0997512513550408e-04 -5.2130163064766779e-19 -6.0997512513550408e-04 8.2067343554876587e-03  0.0000000000000000e+00 9.7053232668046914e-19 -5.0362764755520957e-19 9.7053232668046914e-19 1.7427005832883299e-02 -5.3085327509317661e-04 -5.0362764755520957e-19 -5.3085327509317661e-04 8.0673928595396474e-03  0.0000000000000000e+00 9.7349735208856460e-19 -4.9754626584283627e-19 9.7349735208856460e-19 1.7469571238089496e-02 -5.3011545069314822e-04 -4.9754626584283627e-19 -5.3011545069314822e-04 7.9701638187724168e-03  0.0000000000000000e+00 9.7333347349724710e-19 -4.9927450478836753e-19 9.7333347349724710e-19 1.7468827236123884e-02 -5.3870669700366595e-04 -4.9927450478836753e-19 -5.3870669700366595e-04 7.9819063389475007e-03  0.0000000000000000e+00 9.6925949017385597e-19 -4.9679022694542648e-19 9.6925949017385597e-19 1.7402900654908980e-02 -4.7477362597595819e-04 -4.9679022694542648e-19 -4.7477362597595819e-04 8.0575559320406765e-03  0.0000000000000000e+00 9.6841083323790944e-19 -5.0972210716655745e-19 9.6841083323790944e-19 1.7399301551645364e-02 -5.3705471753990350e-04 -5.0972210716655745e-19 -5.3705471753990350e-04 8.1542648517110641e-03  0.0000000000000000e+00 9.6870300108910200e-19 -5.0733822210806865e-19 9.6870300108910200e-19 1.7400927867948616e-02 -5.2655159113745246e-04 -5.0733822210806865e-19 -5.2655159113745246e-04 8.1359637608734679e-03  0.0000000000000000e+00 9.6814964156050028e-19 -5.1203678456858881e-19 9.6814964156050028e-19 1.7398420292810329e-02 -5.4798575282774510e-04 -5.1203678456858881e-19 -5.4798575282774510e-04 8.1702763501491221e-03  0.0000000000000000e+00 9.6934598583508666e-19 -4.9491832074881792e-19 9.6934598583508666e-19 1.7404750577446983e-02 -4.6454345465502043e-04 -4.9491832074881792e-19 -4.6454345465502043e-04 8.0440032552571601e-03  0.0000000000000000e+00 9.7237980801202245e-19 -5.0173899896519363e-19 9.7237980801202245e-19 1.7452266198954961e-02 -5.4010699197321748e-04 -5.0173899896519363e-19 -5.4010699197321748e-04 8.0228834563080519e-03  0.0000000000000000e+00 9.6820249303307372e-19 -5.1865086524091044e-19 9.6820249303307372e-19 1.7406204621250844e-02 -5.8389312403614555e-04 -5.1865086524091044e-19 -5.8389312403614555e-04 8.2107780517841449e-03  0.0000000000000000e+00 9.7390202768035770e-19 -5.0112941965054796e-19 9.7390202768035770e-19 1.7478432805056315e-02 -5.5688795810103790e-04 -5.0112941965054796e-19 -5.5688795810103790e-04 7.9795955849791180e-03  0.0000000000000000e+00 9.7311064266595281e-19 -4.9282029826976778e-19 9.7311064266595281e-19 1.7460391331035486e-02 -4.9830994045442598e-04 -4.9282029826976778e-19 -4.9830994045442598e-04 7.9508529454493954e-03  0.0000000000000000e+00 9.7271836526695684e-19 -4.9093367615418294e-19 9.7271836526695684e-19 1.7453452651924401e-02 -4.8101079834605146e-04 -4.9093367615418294e-19 -4.8101079834605146e-04 7.9513369047611929e-03  0.0000000000000000e+00 9.6873418255707139e-19 -5.0011412446174686e-19 9.6873418255707139e-19 1.7396617677850074e-02 -4.8574249208549247e-04 -5.0011412446174686e-19 -4.8574249208549247e-04 8.0923160905952956e-03  0.0000000000000000e+00 9.7194378035896009e-19 -5.0734084661569019e-19 9.7194378035896009e-19 1.7453002844857651e-02 -5.6911296456041340e-04 -5.0734084661569019e-19 -5.6911296456041340e-04 8.0571940052910525e-03  0.0000000000000000e+00 9.7435732987978261e-19 -4.9942410590009214e-19 9.7435732987978261e-19 1.7484359814913624e-02 -5.5143174140464732e-04 -4.9942410590009214e-19 -5.5143174140464732e-04 7.9620628022905992e-03  0.0000000000000000e+00 9.7150453826630082e-19 -5.0282343278076256e-19 9.7150453826630082e-19 1.7440895795387913e-02 -5.3730992474787282e-04 -5.0282343278076256e-19 -5.3730992474787282e-04 8.0436159592368345e-03  0.0000000000000000e+00 9.6882014951025884e-19 -5.0261337531686791e-19 9.6882014951025884e-19 1.7399900985086272e-02 -5.0076170719436867e-04 -5.0261337531686791e-19 -5.0076170719436867e-04 8.1055654969703107e-03  0.0000000000000000e+00 9.6883678608187281e-19 -5.0496357985838876e-19 9.6883678608187281e-19 1.7401342763640141e-02 -5.1549932068248392e-04 -5.0496357985838876e-19 -5.1549932068248392e-04 8.1172857104627374e-03  0.0000000000000000e+00 9.6865042989605584e-19 -5.2320536422457874e-19 9.6865042989605584e-19 1.7420417171508301e-02 -6.1532483232601301e-04 -5.2320536422457874e-19 -6.1532483232601301e-04 8.2238179578107921e-03  0.0000000000000000e+00 9.6939711469815689e-19 -5.2567450571436901e-19 9.6939711469815689e-19 1.7436536012758828e-02 -6.4119195642650477e-04 -5.2567450571436901e-19 -6.4119195642650477e-04 8.2138960447171033e-03  0.0000000000000000e+00 9.7056852624768168e-19 -5.2620481998954838e-19 9.7056852624768168e-19 1.7455888446379131e-02 -6.5981886885560623e-04 -5.2620481998954838e-19 -6.5981886885560623e-04 8.1879453533943401e-03  0.0000000000000000e+00 9.7233445988720213e-19 -5.2025999392862498e-19 9.7233445988720213e-19 1.7475233733485737e-02 -6.4822624128945414e-04 -5.2025999392862498e-19 -6.4822624128945414e-04 8.1165050880160038e-03  0.0000000000000000e+00 9.7202217654020576e-19 -5.2239060462414254e-19 9.7202217654020576e-19 1.7470265340839612e-02 -6.5503593239028617e-04 -5.2239060462414254e-19 -6.5503593239028617e-04 8.1406101719381091e-03  0.0000000000000000e+00 9.7386031542340902e-19 -4.9537567271586986e-19 9.7386031542340902e-19 1.7470775381195999e-02 -5.2052278547100143e-04 -4.9537567271586986e-19 -5.2052278547100143e-04 7.9555816426753155e-03  0.0000000000000000e+00 9.7388139977842332e-19 -4.9171525373982904e-19 9.7388139977842332e-19 1.7473436755589215e-02 -4.9930705693709918e-04 -4.9171525373982904e-19 -4.9930705693709918e-04 7.9297913011801089e-03  0.0000000000000000e+00 9.7377849786168107e-19 -4.9026736563226610e-19 9.7377849786168107e-19 1.7466739492565657e-02 -4.8864453507095347e-04 -4.9026736563226610e-19 -4.8864453507095347e-04 7.9298770584335827e-03  0.0000000000000000e+00 -2.3021356772709391e-19 -4.8578543774315244e-19 -2.3021356772709391e-19 -1.8757363491421562e-03 -1.5318005772726442e-03 -4.8578543774315244e-19 -1.5318005772726442e-03 3.4161087088793248e-03  0.0000000000000000e+00 -2.2899997651874198e-19 -4.8655948817152830e-19 -2.2899997651874198e-19 -1.9267171135500427e-03 -1.5414155243494146e-03 -4.8655948817152830e-19 -1.5414155243494146e-03 3.4836657476717040e-03  0.0000000000000000e+00 -2.3097534310460038e-19 -4.9051738046951971e-19 -2.3097534310460038e-19 -1.9106733968685214e-03 -1.5538067262700816e-03 -4.9051738046951971e-19 -1.5538067262700816e-03 3.4785536353832856e-03  0.0000000000000000e+00 -2.3218998135837674e-19 -4.8932486428441772e-19 -2.3218998135837674e-19 -1.8580305901691760e-03 -1.5422457420814614e-03 -4.8932486428441772e-19 -1.5422457420814614e-03 3.4056693577253737e-03  0.0000000000000000e+00 -2.3326593120001430e-19 -4.9392974568222207e-19 -2.3326593120001430e-19 -1.8951003811713918e-03 -1.5629147331762607e-03 -4.9392974568222207e-19 -1.5629147331762607e-03 3.4649727459035071e-03  0.0000000000000000e+00 -2.2988578391341993e-19 -4.9135925128721820e-19 -2.2988578391341993e-19 -1.9651338823282304e-03 -1.5638103563887717e-03 -4.9135925128721820e-19 -1.5638103563887717e-03 3.5478004104782584e-03  0.0000000000000000e+00 -2.2783420388830414e-19 -4.8679614878777786e-19 -2.2783420388830414e-19 -1.9765194825762129e-03 -1.5469182625277122e-03 -4.8679614878777786e-19 -1.5469182625277122e-03 3.5477266317297871e-03  0.0000000000000000e+00 -2.2625556850047941e-19 -4.8707463020134586e-19 -2.2625556850047941e-19 -2.0195912432163965e-03 -1.5546816812317358e-03 -4.8707463020134586e-19 -1.5546816812317358e-03 3.6087263971015062e-03  0.0000000000000000e+00 -2.2861247508983335e-19 -4.9148104201136324e-19 -2.2861247508983335e-19 -2.0161106658466233e-03 -1.5688853082171830e-03 -4.9148104201136324e-19 -1.5688853082171830e-03 3.6137591695529856e-03  0.0000000000000000e+00 -2.3216968637717535e-19 -4.9490404571288798e-19 -2.3216968637717535e-19 -1.9528091046560917e-03 -1.5724093327920009e-03 -4.9490404571288798e-19 -1.5724093327920009e-03 3.5409918902785126e-03  0.0000000000000000e+00 -2.3458197044291777e-19 -4.9309456733407988e-19 -2.3458197044291777e-19 -1.8369695502877224e-03 -1.5522089569469384e-03 -4.9309456733407988e-19 -1.5522089569469384e-03 3.3895005765122118e-03  0.0000000000000000e+00 -2.3516214839831006e-19 -4.9787558267513128e-19 -2.3516214839831006e-19 -1.8888747924245585e-03 -1.5748489248737529e-03 -4.9787558267513128e-19 -1.5748489248737529e-03 3.4718014415339310e-03  0.0000000000000000e+00 -2.2724655788117316e-19 -4.9108635342882796e-19 -2.2724655788117316e-19 -2.0633166787649851e-03 -1.5734932789398875e-03 -4.9108635342882796e-19 -1.5734932789398875e-03 3.6692453405407915e-03  0.0000000000000000e+00 -2.3425292773744131e-19 -4.9852763329061176e-19 -2.3425292773744131e-19 -1.9354923373401797e-03 -1.5826756269049923e-03 -4.9852763329061176e-19 -1.5826756269049923e-03 3.5308909453404388e-03  0.0000000000000000e+00 -2.3090896316193392e-19 -4.9621066599113146e-19 -2.3090896316193392e-19 -2.0061764338089659e-03 -1.5854582131645434e-03 -4.9621066599113146e-19 -1.5854582131645434e-03 3.6145106074893219e-03  0.0000000000000000e+00 -2.2505173403000957e-19 -4.8569258486072065e-19 -2.2505173403000957e-19 -2.0700686340230719e-03 -1.5520228936207919e-03 -4.8569258486072065e-19 -1.5520228936207919e-03 3.6613110014967142e-03  0.0000000000000000e+00 -2.2024080659950017e-19 -4.8101236665322156e-19 -2.2024080659950017e-19 -2.1678503047026080e-03 -1.5456738469944147e-03 -4.8101236665322156e-19 -1.5456738469944147e-03 3.7741454134609738e-03  0.0000000000000000e+00 -2.1854291509823998e-19 -4.7834979204140658e-19 -2.1854291509823998e-19 -2.1931409568177193e-03 -1.538