<?xml version="1.0"?>
<VTKFile type="UnstructuredGrid"  version="0.1"  >
<UnstructuredGrid>
<Piece  NumberOfPoints="10324" NumberOfCells="20301">
<Points>
<DataArray  type="Float64"  NumberOfComponents="3"  format="ascii">4.67879069290115e-23 9.739280004218834e-07 1.168322723194976e-38  4.667657718197442e-23 9.729252312073407e-07 1.16585070622525e-38  4.670737745518599e-23 9.733937811299548e-07 1.911257246971979e-10  4.674687491597103e-23 9.738000778573666e-07 2.416609527618039e-10  4.670034842591251e-23 9.735451776551778e-07 4.058341171538256e-10  4.675480616557918e-23 9.739929520813918e-07 3.630968312272253e-10  4.678589875629298e-23 9.74112116763869e-07 2.022043537991005e-10  4.672402993672952e-23 9.738115970557859e-07 4.589494311798301e-10  4.674185411394599e-23 9.74042360890422e-07 5.291673500753104e-10  4.677293949513178e-23 9.741930467742541e-07 3.998610116573792e-10  4.666058633120551e-23 9.730204290680063e-07 2.392306397940616e-10  4.663330289945338e-23 9.727362859040542e-07 2.008347819865109e-10  4.662904069496083e-23 9.728434178967291e-07 3.46357299790265e-10  4.663353530478787e-23 9.729937358631093e-07 4.561914198860761e-10  4.666592183682011e-23 9.732405032481361e-07 4.112468577283547e-10  4.660644200100233e-23 9.727912637590917e-07 4.977541015339419e-10  4.659988625651504e-23 9.726338866787814e-07 3.994259180839856e-10  4.6710231995311e-23 9.738824288885419e-07 6.540620715976175e-10  4.6688115814574e-23 9.736427996043057e-07 6.136376340134468e-10  4.659832758408266e-23 9.728699920582621e-07 6.495705707359791e-10  4.676128748376971e-23 9.742723608929223e-07 5.841271183821895e-10  4.657184032588357e-23 9.725935394332169e-07 6.116939580016258e-10  4.665918875055782e-23 9.733764965297615e-07 6.078863889175712e-10  4.656850384073798e-23 9.724032208115514e-07 4.514277228530424e-10  4.663010166862998e-23 9.731241178148823e-07 6.175008167014241e-10  4.679213977527093e-23 9.744134846623609e-07 4.473581508040508e-10  4.672769559093405e-23 9.741081943871802e-07 7.225294847548626e-10  4.659686140129638e-23 9.724911912674044e-07 2.839759803782072e-10  4.680144144243893e-23 9.743343920375136e-07 2.844835563732038e-10  4.653952915692726e-23 9.723151072218352e-07 6.24294883563123e-10  4.656037438840074e-23 9.727104350976924e-07 8.318656060274606e-10  4.657206384196031e-23 9.722460170335494e-07 2.621583044944777e-10  4.678457960945398e-23 9.745207063491994e-07 6.226757575546207e-10  4.667914686951895e-23 9.737362327747732e-07 7.878558796966456e-10  4.801253414641938e-23 9.849584617818553e-07 1.195514909861953e-38  4.79012043993823e-23 9.839556925673124e-07 1.193042892892228e-38  4.793106256396419e-23 9.844132423192652e-07 1.88611314182825e-10  4.778987465234522e-23 9.829529233527695e-07 1.190570875922502e-38  4.781956556085074e-23 9.834051022234992e-07 1.847469417662401e-10  4.767854490530815e-23 9.819501541382268e-07 1.188098858952777e-38  4.771022559457956e-23 9.82413752273933e-07 1.782438549111524e-10  4.756721515827106e-23 9.809473849236837e-07 1.185626841983052e-38  4.760042599880113e-23 9.814227450238241e-07 1.76223442068675e-10  4.73445556641969e-23 9.789418464945978e-07 1.180682808043602e-38  4.723322591715983e-23 9.779390772800551e-07 1.178210791073877e-38  4.727363635475824e-23 9.784820514161374e-07 1.789892726620209e-10  4.689923667604858e-23 9.749307696364264e-07 1.170794740164701e-38  4.682959602680809e-23 9.744410297385655e-07 1.375273060777468e-10  4.656524743493734e-23 9.719224619927976e-07 1.163378689255525e-38  4.660961387838746e-23 9.724568596641082e-07 1.347802749310494e-10  4.645391768790026e-23 9.709196927782549e-07 1.1609066722858e-38  4.649409502264051e-23 9.714574682640007e-07 1.758902262160427e-10  4.634258794086318e-23 9.69916923563712e-07 1.158434655316075e-38  4.62312581938261e-23 9.68914154349169e-07 1.15596263834635e-38  4.626688361517531e-23 9.694157521247992e-07 1.80712507003827e-10  4.682076259284314e-23 9.745268069056942e-07 3.028689730323444e-10  4.653309804984768e-23 9.724513887183041e-07 8.185026429262856e-10  4.659108406019282e-23 9.729826894034893e-07 8.275117789453805e-10  4.674672104296379e-23 9.743418248094937e-07 7.847938697250661e-10  4.682086432924114e-23 9.746585877726116e-07 4.33733479941494e-10  4.795976049556506e-23 9.8476070557375e-07 2.775865805396577e-10  4.784949432868034e-23 9.837540032018343e-07 2.640735448112492e-10  4.773418282421504e-23 9.827368782324352e-07 2.855822724951173e-10  4.728928938124084e-23 9.78746632227933e-07 3.025801559890892e-10  4.654002916541793e-23 9.719844969236952e-07 2.891809093185899e-10  4.651025124453443e-23 9.717208405507253e-07 2.937402031383124e-10  4.804234015404323e-23 9.853662424567753e-07 1.393120252636566e-10  4.799519812486314e-23 9.850627126879307e-07 2.603999065168966e-10  4.788259093371826e-23 9.840700485389315e-07 2.820111656763976e-10  4.777182982014318e-23 9.830692755149522e-07 2.788855613448196e-10  4.730431719581237e-23 9.789800537773912e-07 4.006431852383169e-10  4.732926700623641e-23 9.790306382668904e-07 2.264997608801625e-10  4.792051691591311e-23 9.845100422881505e-07 3.80398036334572e-10  4.781141288255488e-23 9.835112536451914e-07 3.643311613290372e-10  4.768623956296641e-23 9.824117418899229e-07 3.922804369712787e-10  4.725068674194432e-23 9.784714278986541e-07 3.750774906129939e-10  4.647520585677278e-23 9.714756368749665e-07 3.641973179082295e-10  4.795614908354365e-23 9.849088242616346e-07 4.582339760921559e-10  4.78450856242071e-23 9.838968636335868e-07 4.466440562093476e-10  4.773366368387766e-23 9.828988276254466e-07 4.522076659664128e-10  4.727500863877404e-23 9.788502015524024e-07 5.347789733627033e-10  4.650736446749361e-23 9.718905049110335e-07 4.894063394572042e-10  4.653936056484246e-23 9.721472219821125e-07 4.579281863409818e-10  4.762261266724777e-23 9.81740437917683e-07 2.940765924298387e-10  4.685385173622832e-23 9.747529999058599e-07 2.310214655589215e-10  4.629162454654621e-23 9.697220476028918e-07 2.641614864907428e-10  4.778704349089827e-23 9.833049840012424e-07 3.775614837479418e-10  4.766386122594727e-23 9.820977860008179e-07 2.798906883873865e-10  4.755693756763843e-23 9.810946754332009e-07 2.39862816203843e-10  4.723107477833803e-23 9.782165109763933e-07 2.968094323306468e-10  4.641958084218869e-23 9.709175874308762e-07 3.071734637248063e-10  4.645164006006395e-23 9.712085002147121e-07 3.093224842071153e-10  4.622480508511325e-23 9.691457377488074e-07 2.897078356274837e-10  4.718467278792356e-23 9.777215945677037e-07 2.198449971208075e-10  4.719734131580691e-23 9.779258998684074e-07 3.100423429149104e-10  4.618454552008367e-23 9.686890054545145e-07 1.956014654651706e-10  4.619551062460912e-23 9.688751609601977e-07 2.829920898385584e-10  4.684885896302455e-23 9.748982798194669e-07 4.212722822461564e-10  4.688746938662484e-23 9.750506341369636e-07 2.258548210649863e-10  4.630399519347941e-23 9.699362479868985e-07 3.669369886600576e-10  4.633494060839288e-23 9.700521638934885e-07 2.041213771038346e-10  4.752509456465107e-23 9.80794108668215e-07 2.261123239945368e-10  4.752318449421618e-23 9.809207347021325e-07 3.699427429096925e-10  4.753528516310427e-23 9.811168519277938e-07 4.570668327803374e-10  4.757377016096891e-23 9.813864699736233e-07 3.800428345246075e-10  4.624238107790306e-23 9.694046897264431e-07 3.903493441055079e-10  4.732916773607626e-23 9.791868996617306e-07 3.836553018329359e-10  4.719672496755204e-23 9.780781568637173e-07 4.678509097668012e-10  4.641631529047964e-23 9.710915498166523e-07 5.105493244209002e-10  4.619117074789324e-23 9.689986169816365e-07 4.45538245598263e-10  4.627811656350968e-23 9.697931918416543e-07 4.569748199929163e-10  4.7161116849854e-23 9.776995195215049e-07 4.099429787468251e-10  4.765076356033801e-23 9.821853923082006e-07 4.854702796846527e-10  4.789543166793594e-23 9.842952701073439e-07 3.915736824129747e-10  4.774941267317945e-23 9.831376579523275e-07 5.491837081451957e-10  4.625542446102504e-23 9.696083082368798e-07 4.764835038065635e-10  4.721349839539179e-23 9.783222072722554e-07 5.608197115672652e-10  4.620335997356913e-23 9.69192556756756e-07 5.296872362942087e-10  4.724834361565283e-23 9.785997737955968e-07 5.245283929421724e-10  4.762177164766498e-23 9.81929704361746e-07 4.909182674519977e-10  4.797981561560813e-23 9.851433382944178e-07 4.795788389017944e-10  4.644371727460851e-23 9.713590379887137e-07 5.312223654584047e-10  4.792365010698237e-23 9.846731299328919e-07 5.152644048119742e-10  4.781528236204756e-23 9.836773409556255e-07 4.955652989604279e-10  4.769734934657411e-23 9.8264425557762e-07 5.247260900366824e-10  4.64745444524318e-23 9.71625668606399e-07 5.201864500279303e-10  4.729863164889078e-23 9.790870227122618e-07 5.588229741038719e-10  4.75843004977711e-23 9.816259922740947e-07 5.247162931991794e-10  4.632023385495943e-23 9.701110757130021e-07 3.954998551829277e-10  4.687336809382322e-23 9.751191392843884e-07 4.213731225034543e-10  4.749405748805021e-23 9.807009730546824e-07 4.125338436904082e-10  4.801325126474112e-23 9.853083688017262e-07 3.434477922577406e-10  4.616236004278854e-23 9.687939869971267e-07 5.004120226361516e-10  4.638618249912346e-23 9.70831675829267e-07 5.220873928823038e-10  4.716688453410406e-23 9.778704884018171e-07 5.289611777803126e-10  4.638751351296093e-23 9.707009886421779e-07 3.79411498948273e-10  4.616553249791374e-23 9.686861161156608e-07 3.639662057309868e-10  4.640622569866853e-23 9.70696054648312e-07 2.05933119922366e-10  4.749953894188972e-23 9.808732987077815e-07 5.354869498514384e-10  4.785773509922396e-23 9.841232728131412e-07 5.591168938191256e-10  4.628967758590694e-23 9.699954495349296e-07 5.551000809475832e-10  4.77823637181631e-23 9.834283195366757e-07 5.430486646738566e-10  4.681470884491478e-23 9.747784747396142e-07 6.090641207809918e-10  4.754402976967807e-23 9.813260699615726e-07 5.87520452744521e-10  4.621773261908184e-23 9.694451428651095e-07 6.528160626969753e-10  4.788862947589096e-23 9.844104068795902e-07 5.679791537775267e-10  4.625132406258893e-23 9.697259334817067e-07
[...]
<PointData  Tensors="f_45"> 
<DataArray  type="Float64"  Name="f_45"  NumberOfComponents="9" format="ascii">0.0000000000000000e+00 2.0311819505941607e-18 1.6359184908938946e-19 2.0311819505941607e-18 2.6395374805072147e-02 -1.1304870916858407e-05 1.6359184908938946e-19 -1.1304870916858407e-05 7.2255277939598239e-03  0.0000000000000000e+00 1.9661307995936878e-18 1.0160569008339656e-19 1.9661307995936878e-18 2.6341737184925332e-02 6.2692558166476118e-06 1.0160569008339656e-19 6.2692558166476118e-06 7.2590996803676032e-03  0.0000000000000000e+00 1.9945654445845094e-18 1.3234846315382675e-19 1.9945654445845094e-18 2.6336193505429133e-02 -4.9777054940501118e-06 1.3234846315382675e-19 -4.9777054940501118e-06 7.2005698981969773e-03  0.0000000000000000e+00 2.0059714165460289e-18 1.2786998889234450e-19 2.0059714165460289e-18 2.6044726303302741e-02 -1.1905499608382700e-04 1.2786998889234450e-19 -1.1905499608382700e-04 7.5500312635089564e-03  0.0000000000000000e+00 1.9862334210315630e-18 1.2800241314037211e-19 1.9862334210315630e-18 2.6011996522935042e-02 -3.9127082987139364e-05 1.2800241314037211e-19 -3.9127082987139364e-05 7.3846632099145984e-03  0.0000000000000000e+00 2.0068868405767934e-18 1.5820157387803525e-19 2.0068868405767934e-18 2.5884039957637894e-02 1.8869304796935414e-05 1.5820157387803525e-19 1.8869304796935414e-05 7.4566517648760782e-03  0.0000000000000000e+00 2.0270596366668349e-18 1.7909502091971398e-19 2.0270596366668349e-18 2.6117982313673654e-02 1.6993006702583277e-04 1.7909502091971398e-19 1.6993006702583277e-04 7.5118488398692373e-03  0.0000000000000000e+00 1.9992274273788658e-18 1.4121010888446889e-19 1.9992274273788658e-18 2.5848470395857626e-02 -3.8477861965896355e-05 1.4121010888446889e-19 -3.8477861965896355e-05 7.5456382930857843e-03  0.0000000000000000e+00 2.0052379474679865e-18 1.5665649794482605e-19 2.0052379474679865e-18 2.5773497801116090e-02 2.5537504523861753e-06 1.5665649794482605e-19 2.5537504523861753e-06 7.5326926087316091e-03  0.0000000000000000e+00 2.0216501403181385e-18 1.7089109639920254e-19 2.0216501403181385e-18 2.5967749735047251e-02 4.8440723163702454e-05 1.7089109639920254e-19 4.8440723163702454e-05 7.4694426734637550e-03  0.0000000000000000e+00 1.9523185479548192e-18 9.8502786361859554e-20 1.9523185479548192e-18 2.6032033278530483e-02 9.8416412590492629e-05 9.8502786361859554e-20 9.8416412590492629e-05 7.5601754391461931e-03  0.0000000000000000e+00 1.9406851110247507e-18 5.9291861300195090e-20 1.9406851110247507e-18 2.6064293215450847e-02 -1.5831290486944500e-04 5.9291861300195090e-20 -1.5831290486944500e-04 7.5112487284064279e-03  0.0000000000000000e+00 1.9391011849326287e-18 8.0336609346131426e-20 1.9391011849326287e-18 2.5908813150861579e-02 -5.8962703727357362e-05 8.0336609346131426e-20 -5.8962703727357362e-05 7.4577872416063274e-03  0.0000000000000000e+00 1.9387195718495788e-18 8.6378986014448583e-20 1.9387195718495788e-18 2.5838691579308945e-02 9.3487852260863293e-06 8.6378986014448583e-20 9.3487852260863293e-06 7.5488074796663356e-03  0.0000000000000000e+00 1.9647975580924587e-18 1.1465613122067752e-19 1.9647975580924587e-18 2.5988261758316505e-02 3.1662689366000057e-05 1.1465613122067752e-19 3.1662689366000057e-05 7.4042485829826981e-03  0.0000000000000000e+00 1.9296818384862449e-18 7.6725152730426959e-20 1.9296818384862449e-18 2.5820797479694818e-02 -2.4197742081613856e-05 7.6725152730426959e-20 -2.4197742081613856e-05 7.5107071941535961e-03  0.0000000000000000e+00 1.9327805967026629e-18 7.2035842300512225e-20 1.9327805967026629e-18 2.5979950926770246e-02 -4.9152169485135066e-05 7.2035842300512225e-20 -4.9152169485135066e-05 7.4419422644849478e-03  0.0000000000000000e+00 1.9866143101924724e-18 1.4097855799097627e-19 1.9866143101924724e-18 2.5632532414218860e-02 -4.0916596333616777e-06 1.4097855799097627e-19 -4.0916596333616777e-06 7.6073022100181372e-03  0.0000000000000000e+00 1.9754182574639964e-18 1.2755821700666512e-19 1.9754182574639964e-18 2.5700734688617336e-02 -1.0859974686659593e-05 1.2755821700666512e-19 -1.0859974686659593e-05 7.5656325205541407e-03  0.0000000000000000e+00 1.9269517864872122e-18 7.8109151611456133e-20 1.9269517864872122e-18 2.5678305966447289e-02 -2.0608725283909252e-05 7.8109151611456133e-20 -2.0608725283909252e-05 7.5862645889576445e-03  0.0000000000000000e+00 2.0177131483279293e-18 1.7212833835919814e-19 2.0177131483279293e-18 2.5726405889781690e-02 1.6655989251958364e-05 1.7212833835919814e-19 1.6655989251958364e-05 7.5540063385467360e-03  0.0000000000000000e+00 1.9132105687290035e-18 6.3459398025637388e-20 1.9132105687290035e-18 2.5731389791873165e-02 -1.8993126904796472e-05 6.3459398025637388e-20 -1.8993126904796472e-05 7.5527786867482065e-03  0.0000000000000000e+00 1.9617045231475173e-18 1.1166903387144760e-19 1.9617045231475173e-18 2.5754088257613321e-02 -1.1719781829362875e-05 1.1166903387144760e-19 -1.1719781829362875e-05 7.5497487392312667e-03  0.0000000000000000e+00 1.9126884330419182e-18 5.7460039007608882e-20 1.9126884330419182e-18 2.5938207658968038e-02 -2.0626774014090433e-05 5.7460039007608882e-20 -2.0626774014090433e-05 7.4413624092384617e-03  0.0000000000000000e+00 1.9406464004421033e-18 9.4132132032708098e-20 1.9406464004421033e-18 2.5695166770070089e-02 8.4371985858517729e-08 9.4132132032708098e-20 8.4371985858517729e-08 7.5688458584760943e-03  0.0000000000000000e+00 2.0423438501318247e-18 1.8981724842894376e-19 2.0423438501318247e-18 2.5952461078991365e-02 -6.8067539827134003e-07 1.8981724842894376e-19 -6.8067539827134003e-07 7.4183300226969987e-03  0.0000000000000000e+00 1.9972360207541537e-18 1.5547577394014964e-19 1.9972360207541537e-18 2.5552600363752037e-02 1.2656394590313001e-06 1.5547577394014964e-19 1.2656394590313001e-06 7.6281339601903539e-03  0.0000000000000000e+00 1.9322789699887140e-18 7.0015931854371099e-20 1.9322789699887140e-18 2.6175212963454545e-02 -4.5837547046358172e-05 7.0015931854371099e-20 -4.5837547046358172e-05 7.2806604408838342e-03  0.0000000000000000e+00 2.0545091548801557e-18 1.9832651269148181e-19 2.0545091548801557e-18 2.6230105879336749e-02 2.6058575749374029e-05 1.9832651269148181e-19 2.6058575749374029e-05 7.2600250949388300e-03  0.0000000000000000e+00 1.8957680591651797e-18 4.6900551292394762e-20 1.8957680591651797e-18 2.5737254200738451e-02 -4.6356377907231876e-06 4.6900551292394762e-20 -4.6356377907231876e-06 7.5597106017361165e-03  0.0000000000000000e+00 1.9046538471811136e-18 6.4859930606580385e-20 1.9046538471811136e-18 2.5482838813109126e-02 4.1242816846332729e-06 6.4859930606580385e-20 4.1242816846332729e-06 7.6681905387502936e-03  0.0000000000000000e+00 1.9132835970266523e-18 6.4718932982418080e-20 1.9132835970266523e-18 2.6145559042456284e-02 1.1287301467297663e-04 6.4718932982418080e-20 1.1287301467297663e-04 7.3809675155264102e-03  0.0000000000000000e+00 2.0359671915867035e-18 1.8738058493941879e-19 2.0359671915867035e-18 2.5670739504337979e-02 -2.5663973357283525e-05 1.8738058493941879e-19 -2.5663973357283525e-05 7.5791083603823032e-03  0.0000000000000000e+00 1.9697306850862027e-18 1.3006012588899152e-19 1.9697306850862027e-18 2.5482739828691786e-02 -4.4709536301679249e-06 1.3006012588899152e-19 -4.4709536301679249e-06 7.6488768435918350e-03  0.0000000000000000e+00 5.9198414562944458e-19 6.5929537101075570e-19 5.9198414562944458e-19 -2.2293275789663997e-03 4.7971243305344915e-06 6.5929537101075570e-19 4.7971243305344915e-06 1.0263505894423292e-03  0.0000000000000000e+00 6.4968415642772345e-19 7.1863508717360958e-19 6.4968415642772345e-19 -2.3868085409536328e-03 -1.3406505792036048e-05 7.1863508717360958e-19 -1.3406505792036048e-05 1.1178859853167205e-03  0.0000000000000000e+00 6.2331100287939605e-19 6.8089375661056352e-19 6.2331100287939605e-19 -2.2849644056413825e-03 -6.6137806677148006e-05 6.8089375661056352e-19 -6.6137806677148006e-05 1.1153701192982363e-03  0.0000000000000000e+00 7.3566790266800833e-19 8.1060282086826972e-19 7.3566790266800833e-19 -2.5028924054608611e-03 6.5727544473033484e-06 8.1060282086826972e-19 6.5727544473033484e-06 1.1661304356236424e-03  0.0000000000000000e+00 6.9195814734207011e-19 7.5050433771425739e-19 6.9195814734207011e-19 -2.4694817913448550e-03 -9.0302208242312788e-05 7.5050433771425739e-19 -9.0302208242312788e-05 1.2342029702852430e-03  0.0000000000000000e+00 8.3378157394563727e-19 9.0898672344082273e-19 8.3378157394563727e-19 -2.7718628120172932e-03 -1.8849040725808063e-05 9.0898672344082273e-19 -1.8849040725808063e-05 1.3793891976006006e-03  0.0000000000000000e+00 7.9308771328680651e-19 8.5461388411356215e-19 7.9308771328680651e-19 -2.5970968656098556e-03 -6.7188395792065010e-05 8.5461388411356215e-19 -6.7188395792065010e-05 1.3543631139987364e-03  0.0000000000000000e+00 1.1456777816808620e-18 1.2902143959256976e-18 1.1456777816808620e-18 -3.4191284170873855e-03 9.8052286517917670e-06 1.2902143959256976e-18 9.8052286517917670e-06 8.3499870616165160e-04  0.0000000000000000e+00 9.2614545336109649e-19 9.4998006377510271e-19 9.2614545336109649e-19 -3.0341932098824041e-03 -5.0213049616667864e-04 9.4998006377510271e-19 -5.0213049616667864e-04 1.6005660472295405e-03  0.0000000000000000e+00 2.8116727422288330e-18 9.2171815555115872e-19 2.8116727422288330e-18 2.6485058025357649e-02 1.0628211999950397e-04 9.2171815555115872e-19 1.0628211999950397e-04 7.7739013038548663e-03  0.0000000000000000e+00 2.4596829771852759e-18 5.9476555481399171e-19 2.4596829771852759e-18 2.6645086556789491e-02 2.4990951765972136e-05 5.9476555481399171e-19 2.4990951765972136e-05 7.0002609806060203e-03  0.0000000000000000e+00 2.5924056614020030e-18 6.5360224515143062e-19 2.5924056614020030e-18 2.6821027496877137e-02 -5.8961312338429682e-04 6.5360224515143062e-19 -5.8961312338429682e-04 6.9261236282325790e-03  0.0000000000000000e+00 2.1092857064461405e-18 2.3941025452790406e-19 2.1092857064461405e-18 2.6446483853473438e-02 -7.5159957584031138e-06 2.3941025452790406e-19 -7.5159957584031138e-06 7.2231657089501643e-03  0.0000000000000000e+00 2.0755765125553040e-18 2.0941602537363976e-19 2.0755765125553040e-18 2.6492307735257882e-02 -2.7305687412419173e-05 2.0941602537363976e-19 -2.7305687412419173e-05 7.0708395886505534e-03  0.0000000000000000e+00 1.9036928638731727e-18 3.9265674482239815e-20 1.9036928638731727e-18 2.6260806185778897e-02 -8.3315616638020279e-06 3.9265674482239815e-20 -8.3315616638020279e-06 7.3090650724892663e-03  0.0000000000000000e+00 1.9398258880247162e-18 7.5763927427341224e-20 1.9398258880247162e-18 2.6376460042396688e-02 -2.3541350042596516e-05 7.5763927427341224e-20 -2.3541350042596516e-05 7.1564122620941892e-03  0.0000000000000000e+00 1.8501774386895257e-18 -1.0942140693962588e-20 1.8501774386895257e-18 2.6214187982536618e-02 5.9731932088007102e-06 -1.0942140693962588e-20 5.9731932088007102e-06 7.3247081806967779e-03  0.0000000000000000e+00 1.8799127319869631e-18 1.6991799649321616e-20 1.8799127319869631e-18 2.6275789031629731e-02 -2.4087874937151058e-05 1.6991799649321616e-20 -2.4087874937151058e-05 7.2354352852780565e-03  0.0000000000000000e+00 1.7987239435728982e-18 -6.3508820262971406e-20 1.7987239435728982e-18 2.6174818368504958e-02 -1.5486935197040478e-05 -6.3508820262971406e-20 -1.5486935197040478e-05 7.3412108862571431e-03  0.0000000000000000e+00 1.7536649102803104e-18 -1.0528873489705728e-19 1.7536649102803104e-18 2.6121000742819783e-02 5.7786004982074309e-07 -1.0528873489705728e-19 5.7786004982074309e-07 7.3680867521559211e-03  0.0000000000000000e+00 1.7773761056681567e-18 -8.0884515255201254e-20 1.7773761056681567e-18 2.6168149598850960e-02 -8.2460210710066986e-06 -8.0884515255201254e-20 -8.2460210710066986e-06 7.2908057187981651e-03  0.0000000000000000e+00 2.0627289877760193e-18 2.0079175504776746e-19 2.0627289877760193e-18 2.6192991101979177e-02 -4.0117172327284674e-05 2.0079175504776746e-19 -4.0117172327284674e-05 7.2684538633814742e-03  0.0000000000000000e+00 1.8930132685439720e-18 4.9861148499238860e-20 1.8930132685439720e-18 2.5525925736502548e-02 -1.5053491926135826e-05 4.9861148499238860e-20 -1.5053491926135826e-05 7.6472440837277444e-03  0.0000000000000000e+00 1.9216100543190341e-18 8.0518597837222406e-20 1.9216100543190341e-18 2.5491127859779701e-02 -9.0574642571722343e-06 8.0518597837222406e-20 -9.0574642571722343e-06 7.6569124011711407e-03  0.0000000000000000e+00 2.0074426006333242e-18 1.7026441851956144e-19 2.0074426006333242e-18 2.5447565598877779e-02 1.8196719521461509e-05 1.7026441851956144e-19 1.8196719521461509e-05 7.6844877456926320e-03  0.0000000000000000e+00 2.0642431839546370e-18 2.0371430932698712e-19 2.0642431839546370e-18 2.5920008942552281e-02 -5.7214659979961969e-05 2.0371430932698712e-19 -5.7214659979961969e-05 7.4818703234269127e-03  0.0000000000000000e+00 6.1348595488622701e-19 6.9090230700342593e-19 6.1348595488622701e-19 -1.9787934366245243e-03 1.1753692438921847e-04 6.9090230700342593e-19 1.1753692438921847e-04 8.1925826721433021e-04  0.0000000000000000e+00 6.7899678630001980e-19 7.6681432634043976e-19 6.7899678630001980e-19 -2.0553560673874632e-03 1.7527930511648806e-04 7.6681432634043976e-19 1.7527930511648806e-04 8.2393451521087311e-04  0.0000000000000000e+00 7.8002098618350304e-19 8.7293208805092319e-19 7.8002098618350304e-19 -2.0115348116776441e-03 2.2995545816045497e-04 8.7293208805092319e-19 2.2995545816045497e-04 7.9770811300429705e-04  0.0000000000000000e+00 2.5779833263373547e-18 6.4869085228335171e-19 2.5779833263373547e-18 2.4049591480690191e-02 -6.9316467443812798e-04 6.4869085228335171e-19 -6.9316467443812798e-04 9.3191226393863243e-03  0.0000000000000000e+00 1.8847419638100815e-18 2.9691497940574825e-20 1.8847419638100815e-18 2.5908544220977717e-02 4.8251123434315987e-05 2.9691497940574825e-20 4.8251123434315987e-05 7.6055763732633596e-03  0.0000000000000000e+00 1.8805148266044758e-18 7.9525030564614163e-21 1.8805148266044758e-18 2.5983672699330097e-02 -1.2151401050140641e-04 7.9525030564614163e-21 -1.2151401050140641e-04 7.5063832098983471e-03  0.0000000000000000e+00 5.7361183353742215e-19 6.2529645741507730e-19 5.7361183353742215e-19 -2.1649873051118270e-03 -9.2114702577789857e-05 6.2529645741507730e-19 -9.2114702577789857e-05 1.0496904886078558e-03  0.0000000000000000e+00 6.0681464804237128e-19 6.5644334731911017e-19 6.0681464804237128e-19 -1.8469354645192014e-03 -1.1795049059138252e-04 6.5644334731911017e-19 -1.1795049059138252e-04 7.1700331706028495e-04  0.0000000000000000e+00 6.7079658056153565e-19 7.2226263651814204e-19 6.7079658056153565e-19 -1.8907019908062808e-03 -1.3234478143171781e-04 7.2226263651814204e-19 -1.3234478143171781e-04 6.9888238622709529e-04  0.0000000000000000e+00 7.5877187406446818e-19 8.1004979966221030e-19 7.5877187406446818e-19 -1.8798692246331785e-03 -1.6182862824895550e-04 8.1004979966221030e-19 -1.6182862824895550e-04 6.3247098167329527e-04  0.0000000000000000e+00 2.5060039065198779e-18 8.7719368916289620e-19 2.5060039065198779e-18 2.3114393207535486e-02 1.2458559372503051e-03 8.7719368916289620e-19 1.2458559372503051e-03 8.7193550187552836e-03  0.0000000000000000e+00 2.5931945673129111e-18 8.8272109977464242e-19 2.5931945673129111e-18 2.2656349984724253e-02 1.1818455211098421e-03 8.8272109977464242e-19 1.1818455211098421e-03 1.0520491741616409e-02  0.0000000000000000e+00 6.3843438498633106e-19 6.9107864767736178e-19 6.3843438498633106e-19 -1.9834949181727463e-03 -4.7104944749809771e-05 6.9107864767736178e-19 -4.7104944749809771e-05 9.4093030131948540e-04  0.0000000000000000e+00 7.0894010376840481e-19 7.6604174570544223e-19 7.0894010376840481e-19 -2.0790262066308338e-03 -2.9717966353908739e-05 7.6604174570544223e-19 -2.9717966353908739e-05 9.9093854052576175e-04  0.0000000000000000e+00 8.2203127268575848e-19 8.7138794868023196e-19 8.2203127268575848e-19 -2.0584700103305179e-03 -4.1405625508740399e-05 8.7138794868023196e-19 -4.1405625508740399e-05 1.0865279288463359e-03  0.0000000000000000e+00 2.5175001921876770e-18 6.9089376306694952e-19 2.5175001921876770e-18 2.5266621043402014e-02 -7.4447097499520987e-06 6.9089376306694952e-19 -7.4447097499520987e-06 7.6237056712681354e-03  0.0000000000000000e+00 1.8696036627762068e-18 1.1621873316111108e-20 1.8696036627762068e-18 2.6033766872641459e-02 -3.4095339211501015e-05 1.1621873316111108e-20 -3.4095339211501015e-05 7.3684668276295055e-03  0.0000000000000000e+00 6.2459448895753008e-19 6.7162951570924260e-19 6.2459448895753008e-19 -1.7222877700146578e-03 -4.3783662243129838e-05 6.7162951570924260e-19 -4.3783662243129838e-05 7.8741272971940884e-04  0.0000000000000000e+00 6.9162189450569950e-19 7.3972596848892497e-19 6.9162189450569950e-19 -1.7332292474983566e-03 -2.5851181645375902e-05 7.3972596848892497e-19 -2.5851181645375902e-05 8.1496092554193334e-04  0.0000000000000000e+00 7.8836751203240954e-19 8.3706980321531569e-19 7.8836751203240954e-19 -1.6114092022397207e-03 1.9376542903071375e-05 8.3706980321531569e-19 1.9376542903071375e-05 7.7281980634911205e-04  0.0000000000000000e+00 2.4631307091780640e-18 8.1096298515773077e-19 2.4631307091780640e-18 2.2931425250413910e-02 1.0176725251225299e-03 8.1096298515773077e-19 1.0176725251225299e-03 8.8667275848416383e-03  0.0000000000000000e+00 1.8777791770102583e-18 2.6837116268281037e-20 1.8777791770102583e-18 2.5812406292406356e-02 -8.4719389569620876e-06 2.6837116268281037e-20 -8.4719389569620876e-06 7.5142577298469215e-03  0.0000000000000000e+00 1.8941168744266255e-18 4.1746603420083060e-20 1.8941168744266255e-18 2.5880200664255337e-02 -2.3999037649502018e-06 4.1746603420083060e-20 -2.3999037649502018e-06 7.4843357772437832e-03  0.0000000000000000e+00 9.2731969009778982e-19 1.0353205170330275e-18 9.2731969009778982e-19 -1.9245707645554036e-03 3.3154470191545298e-04 1.0353205170330275e-18 3.3154470191545298e-04 6.4209023261974963e-04  0.0000000000000000e+00 2.0776894990616167e-18 1.9310108980856490e-19 2.0776894990616167e-18 2.6076833428093721e-02 -1.7508161243440020e-04 1.9310108980856490e-19 -1.7508161243440020e-04 7.5227299776764126e-03  0.0000000000000000e+00 1.7787911056519337e-18 -8.8013286681426705e-20 1.7787911056519337e-18 2.5927431460160071e-02 -8.6522627905600706e-05 -8.8013286681426705e-20 -8.6522627905600706e-05 7.5288815467726257e-03  0.0000000000000000e+00 7.2966835305571770e-19 7.7599704298836314e-19 7.2966835305571770e-19 -1.9923381730698685e-03 -9.3773212842081103e-05 7.7599704298836314e-19 -9.3773212842081103e-05 9.7020826451645157e-04  0.0000000000000000e+00 8.7962122629690008e-19 9.2396237652881371e-19 8.7962122629690008e-19 -1.7940025273385275e-03 -2.1173140978307823e-04 9.2396237652881371e-19 -2.1173140978307823e-04 5.7176055712890468e-04  0.0000000000000000e+00 1.2351663743585918e-18 1.2445499544778702e-18 1.2351663743585918e-18 -3.7165347194040841e-04 -6.9988720815505716e-04 1.2445499544778702e-18 -6.9988720815505716e-04 -1.1971604960917667e-03  0.0000000000000000e+00 2.4716556514150456e-18 6.5771802919128978e-19 2.4716556514150456e-18 2.5712488091989689e-02 4.0603197534885431e-04 6.5771802919128978e-19 4.0603197534885431e-04 7.7765710567890478e-03  0.0000000000000000e+00 1.8287196610115566e-18 -2.9695554419958150e-20 1.8287196610115566e-18 2.5862494094025662e-02 -5.4161172794029719e-06 -2.9695554419958150e-20 -5.4161172794029719e-06 7.6049059582873144e-03  0.0000000000000000e+00 1.8507994814498361e-18 2.6688581847680912e-21 1.8507994814498361e-18 2.6025633058676903e-02 9.4465654199568349e-05 2.6688581847680912e-21 9.4465654199568349e-05 7.4562597947976711e-03  0.0000000000000000e+00 1.7498805207712882e-18 -9.7358548766664880e-20 1.7498805207712882e-18 2.5938215283214331e-02 8.5263611055013270e-05 -9.7358548766664880e-20 8.5263611055013270e-05 7.5092126798298135e-03  0.0000000000000000e+00 2.4021196672645257e-18 4.8866487689045726e-19 2.4021196672645257e-18 2.5906464409273352e-02 -4.2554700158425792e-04 4.8866487689045726e-19 -4.2554700158425792e-04 7.7121787112353008e-03  0.0000000000000000e+00 2.3858253383243198e-18 5.4019845082869623e-19 2.3858253383243198e-18 2.5269109718035979e-02 7.2014803192821611e-05 5.4019845082869623e-19 7.2014803192821611