<?xml version="1.0"?>
<VTKFile type="UnstructuredGrid"  version="0.1"  >
<UnstructuredGrid>
<Piece  NumberOfPoints="10049" NumberOfCells="19698">
<Points>
<DataArray  type="Float64"  NumberOfComponents="3"  format="ascii">3.875499574247055e-23 9.29896634840042e-07 2.832266607097074e-08  3.847840040459637e-23 9.292781534749271e-07 3.019553402702106e-08  3.869596087308822e-23 9.307906618468209e-07 2.974843190925393e-08  3.822619727987443e-23 9.289588210231773e-07 3.214784537230994e-08  3.846725948954085e-23 9.304594087353973e-07 3.147713772927643e-08  3.896563444806269e-23 9.318448912844064e-07 2.837365772330594e-08  3.824928819014011e-23 9.303577470673111e-07 3.333878698670745e-08  3.866378436864314e-23 9.317578673327725e-07 3.10054575820634e-08  3.849093502564464e-23 9.316568417346818e-07 3.246132045741128e-08  3.884101871320748e-23 9.320469779537818e-07 2.969818314679827e-08  3.949886498170425e-23 9.335139916493695e-07 2.523984442304769e-08  3.922977892304383e-23 9.324638142699333e-07 2.661337879063879e-08  3.936274806362633e-23 9.337852478658246e-07 2.673713284257187e-08  3.900452492426054e-23 9.330108463907857e-07 2.918931856145945e-08  3.884901675556628e-23 9.328900535735447e-07 3.046921880538753e-08  3.957500343297657e-23 9.347286849597672e-07 2.576874353188823e-08  3.916858809167488e-23 9.332325037385929e-07 2.793322627000184e-08  3.80180333217813e-23 9.304594161508549e-07 3.552341474818792e-08  3.831040448401863e-23 9.316762524954711e-07 3.410680577819239e-08  3.965590912550287e-23 9.344300709030446e-07 2.474139578173848e-08  3.9446451719463e-23 9.347127553296636e-07 2.691070479993964e-08  3.901398923690373e-23 9.338362385819245e-07 2.992946380281189e-08  3.818143977075471e-23 9.319507081118266e-07 3.554287226374647e-08  3.868786252260247e-23 9.327527731239027e-07 3.178348664279557e-08  3.796659277209406e-23 9.316043967976421e-07 3.713173067578155e-08  3.775103060719324e-23 9.314655006894149e-07 3.893444593859938e-08  3.757406067509398e-23 9.31550826968658e-07 4.061377565835848e-08  3.777901601996191e-23 9.326243451412419e-07 3.984122020139273e-08  3.977661246410393e-23 9.35411003176174e-07 2.463512903337564e-08  3.796238305711783e-23 9.327027257812419e-07 3.826797740097794e-08  3.957374089735693e-23 9.354890621779031e-07 2.654049265991637e-08  3.915456212375609e-23 9.340322324024164e-07 2.885928962161047e-08  3.930534936626116e-23 9.343348650813161e-07 2.780375156219403e-08  3.822186856601342e-23 9.331669216333257e-07 3.639493557072119e-08  3.838321859723302e-23 9.329556761883546e-07 3.473037824479646e-08  3.88668495470353e-23 9.33740892905536e-07 3.115943463134918e-08  3.79619500140237e-23 9.336403573041074e-07 3.920950942927813e-08  3.852992338897636e-23 9.328153042441853e-07 3.326860700976968e-08  3.943643832544897e-23 9.353481584282166e-07 2.763630053359337e-08  3.970045357480362e-23 9.357252048218529e-07 2.563530897000222e-08  3.915334219735804e-23 9.347092776543421e-07 2.954732299367946e-08  3.968145895771154e-23 9.362026584016326e-07 2.628385085069769e-08  3.983208392795185e-23 9.362084158151501e-07 2.493289914452126e-08  3.902597476474296e-23 9.346118497545047e-07 3.05971189379709e-08  3.873212842911625e-23 9.337888308240259e-07 3.242083250275742e-08  3.958480594800768e-23 9.361312889671999e-07 2.708305433323818e-08  3.978401686286721e-23 9.364595525950693e-07 2.56169855572485e-08  3.991653786263741e-23 9.362067504352367e-07 2.417054034704821e-08  3.928408901751444e-23 9.349656457059822e-07 2.862602838424718e-08  3.890307212092321e-23 9.346285008606525e-07 3.172077864593762e-08  3.814587207400059e-23 9.339341685394531e-07 3.784669802306954e-08  3.842872729440416e-23 9.339336131008683e-07 3.52984092540661e-08  3.858424268118089e-23 9.340113495875557e-07 3.397538766487739e-08  3.994419559334895e-23 9.368099529701452e-07 2.452462419050398e-08  3.91571874155517e-23 9.353900436786569e-07 3.019345437154612e-08  3.837479495280545e-23 9.34610995357734e-07 3.646157085798612e-08  3.949935869562859e-23 9.361121390844166e-07 2.78335448784034e-08  3.969656949768672e-23 9.367902441720417e-07 2.673533297670355e-08  3.880319234883061e-23 9.347868120227318e-07 3.277872681677312e-08  3.904955075192258e-23 9.353589357665879e-07 3.113185133590007e-08  3.797682897818549e-23 9.344551259662505e-07 3.98902602965118e-08  3.811020514802867e-23 9.345846934120289e-07 3.881848200467853e-08  3.856625632208515e-23 9.348680596186085e-07 3.499410441617285e-08  3.960584851349405e-23 9.368081020850852e-07 2.757033287095677e-08  3.976817491470075e-23 9.367817911795091e-07 2.608191572540691e-08  3.938799603615719e-23 9.357694432314436e-07 2.849391468882715e-08  3.92755424038451e-23 9.355335202631807e-07 2.927088399371867e-08  3.89535152023162e-23 9.354306596383586e-07 3.2068586538514e-08  3.810879883206638e-23 9.352131930131312e-07 3.945964857386831e-08  3.948150143778173e-23 9.364889300830208e-07 2.837117975657759e-08  3.826627564385271e-23 9.349584165404378e-07 3.778644707941409e-08  3.853663972915738e-23 9.355639714661688e-07 3.595677881748008e-08  3.870754349523798e-23 9.350094864679085e-07 3.386292954474622e-08  3.917413374533047e-23 9.360324786104136e-07 3.068325033434887e-08  3.981304517378656e-23 9.37322636751574e-07 2.621860593327405e-08  3.987561955502018e-23 9.367946189337388e-07 2.512696819542544e-08  3.927269753390081e-23 9.360911467563858e-07 2.985413479736578e-08  3.98511426566342e-23 9.370488474692974e-07 2.560166503188469e-08  3.865112630071274e-23 9.357537138877522e-07 3.511531787707218e-08  3.97241433043746e-23 9.373583193209808e-07 2.705504535459329e-08  3.99493060258395e-23 9.373267291131927e-07 2.499536964983112e-08  3.908494718115105e-23 9.360450163431798e-07 3.149910922152477e-08  3.887996411013186e-23 9.356787836090304e-07 3.297919985189395e-08  3.84304570017365e-23 9.357346534229927e-07 3.708386975759576e-08  3.937651724383484e-23 9.362454247076841e-07 2.907328793471891e-08  3.864991595669314e-23 9.362674740122262e-07 3.563997981129752e-08  3.966858102390816e-23 9.374875108219055e-07 2.768469738672705e-08  3.901553757791619e-23 9.361777350142118e-07 3.225701401908566e-08  3.879585100304603e-23 9.35792060255199e-07 3.385010001351998e-08  3.821897532728375e-23 9.353798893047883e-07 3.863396321991344e-08  3.821380520964545e-23 9.35882376151544e-07 3.918301834640778e-08  3.990418860445622e-23 9.375287722232062e-07 2.560379436410395e-08  3.956380873531408e-23 9.371174107002589e-07 2.825830214482256e-08  3.981914636867714e-23 9.378141531215506e-07 2.665516762517925e-08  3.92790803013569e-23 9.366474544009841e-07 3.035295158369044e-08  3.919668154000187e-23 9.366182415547406e-07 3.106592079931547e-08  3.975735310715897e-23 9.379018126835799e-07 2.729941140630291e-08  3.873335484858572e-23 9.363838243281617e-07 3.500477940236181e-08  3.912309102629147e-23 9.366443953378134e-07 3.175491900263673e-08  3.889209460399989e-23 9.362197769192205e-07 3.341093138675626e-08  3.833188675914829e-23 9.35699832080393e-07 3.793689023057614e-08  3.85770701775949e-23 9.363381254988951e-07 3.636676774517108e-08  3.99966877955388e-23 9.379046813634516e-07 2.514654485936612e-08  3.87592213028415e-23 9.361010264495509e-07 3.448899721625557e-08  3.831663492303966e-23 9.361226557200345e-07 3.849709019704877e-08  3.937436461020893e-23 9.367409555122924e-07 2.958820793931826e-08  3.946658589212061e-23 9.368972700827629e-07 2.891386704808251e-08  3.988637523941392e-23 9.378197138364969e-07 2.605518450572807e-08  3.882830495597143e-23 9.367044350573738e-07 3.447015559509181e-08  3.873144322266896e-23 9.367501765023716e-07 3.538834997210444e-08  3.962733428113343e-23 9.376808444208515e-07 2.824954861645407e-08  3.970816017410323e-23 9.380227299794702e-07 2.786341925215139e-08  3.868892766077323e-23 9.354646460509308e-07 3.448576565808581e-08  3.983533181956969e-23 9.382691586203337e-07 2.696438754274523e-08  3.989711175056889e-23 9.382197818307549e-07 2.635854660471255e-08  3.906621875199202e-23 9.367637907483692e-07 3.238657431987787e-08  3.921785951743452e-23 9.371223693961123e-07 3.1379294378139e-08  3.928798247439034e-23 9.371164604457082e-07 3.074177398210217e-08  3.851941367446682e-23 9.365876067938774e-07 3.71355726521597e-08  3.88589722601269e-23 9.364525407617877e-07 3.394203478037162e-08  3.841777417735256e-23 9.363381142778861e-07 3.780156733882816e-08  3.897496009821391e-23 9.364307919506227e-07 3.287556040043029e-08  3.91569636095766e-23 9.371677713089073e-07 3.197319786680856e-08  3.954254224815214e-23 9.374440857351191e-07 2.877652866699872e-08  3.994493921123302e-23 9.381715352263068e-07 2.587950853221436e-08  3.9945397358335e-23 9.379203460705062e-07 2.562419275417821e-08  3.894936403285675e-23 9.367684472424973e-07 3.34437645531142e-08  3.863053800911251e-23 9.369989529078996e-07 3.65459997419776e-08  3.879880342949828e-23 9.369117302864865e-07 3.49431769514672e-08  3.979223309996083e-23 9.384430662287588e-07 2.752649390631153e-08  3.937469469071498e-23 9.372283475757623e-07 3.007262690189997e-08  3.868938352628647e-23 9.368723086002071e-07 3.588932213585095e-08  3.910638816709019e-23 9.372186168235712e-07 3.247958646934426e-08  4.007960917762119e-23 9.381938812972346e-07 2.468885538225448e-08  4.005518917198258e-23 9.383623473112451e-07 2.507727725285393e-08  3.99626528189905e-23 9.384794883881815e-07 2.602791169949703e-08  3.929822005494952e-23 9.375206382830695e-07 3.105373989148054e-08  3.89194453973005e-23 9.370230440792422e-07 3.396784450174419e-08  3.903346193791989e-23 9.370155441059713e-07 3.293337482877816e-08  3.999725166999751e-23 9.382236369865172e-07 2.546042155282754e-08  3.946726489425812e-23 9.373627728591461e-07 2.937325391691885e-08  3.924543907647381e-23 9.3765238515096e-07 3.166089554936192e-08  3.966821794748265e-23 9.381217268729055e-07 2.832218373943634e-08  3.917269365868031e-23 9.375978421586363e-07 3.226158502997363e-08  3.993611105543375e-23 9.385500409066814e-07 2.633753117092475e-08  4.011440470962432e-23 9.385594233634919e-07 2.474098715858492e-08  3.888662312030607e-23 9.373170563890951e-07
[...]
<PointData  Tensors="f_58"> 
<DataArray  type="Float64"  Name="f_58"  NumberOfComponents="9" format="ascii">-8.6744168566924045e-16 -1.5678290508776664e-19 -4.3447374272051308e-19 -1.5678290508776664e-19 -1.4543515522833362e-03 -1.6316543581648042e-03 -4.3447374272051308e-19 -1.6316543581648042e-03 3.1934762475001369e-03  2.7834271048006876e-16 -1.4718313664867361e-19 -4.1255749696856419e-19 -1.4718313664867361e-19 -1.5061688317525180e-03 -1.5081138493467292e-03 -4.1255749696856419e-19 -1.5081138493467292e-03 3.2705006140609045e-03  -5.8013061455001916e-16 -1.5782280690224383e-19 -4.3847980469731973e-19 -1.5782280690224383e-19 -1.7428538780110087e-03 -1.6158938469054160e-03 -4.3847980469731973e-19 -1.6158938469054160e-03 3.5669331869543812e-03  -2.5605788557056470e-16 -1.4517547864307328e-19 -3.9399781395922867e-19 -1.4517547864307328e-19 -1.6138465823960695e-03 -1.3791533022999764e-03 -3.9399781395922867e-19 -1.3791533022999764e-03 3.3379246842407352e-03  9.2487374624431808e-17 -1.5172293255490367e-19 -4.1821858664263190e-19 -1.5172293255490367e-19 -1.7887941304899789e-03 -1.5005736974676206e-03 -4.1821858664263190e-19 -1.5005736974676206e-03 3.5884056493363072e-03  7.1871498438503899e-15 -1.6348090202404689e-19 -4.6442847399389993e-19 -1.6348090202404689e-19 -1.8049787934801644e-03 -1.7635715156284824e-03 -4.6442847399389993e-19 -1.7635715156284824e-03 3.6992252541635509e-03  1.3888132517656421e-15 -1.4996158458808251e-19 -4.0436121282334503e-19 -1.4996158458808251e-19 -1.8988045323748465e-03 -1.3923135611608737e-03 -4.0436121282334503e-19 -1.3923135611608737e-03 3.6970336937498962e-03  -2.1022693255807009e-15 -1.6168426601765802e-19 -4.3979019667834072e-19 -1.6168426601765802e-19 -1.9942514945746320e-03 -1.5906434551767172e-03 -4.3979019667834072e-19 -1.5906434551767172e-03 3.8228756469888760e-03  6.9080458421285183e-17 -1.5827717408651818e-19 -4.2537527253215374e-19 -1.5827717408651818e-19 -2.0683891226511010e-03 -1.4887784769243005e-03 -4.2537527253215374e-19 -1.4887784769243005e-03 3.9024437553272298e-03  -1.6522359795660687e-15 -1.6648721927240348e-19 -4.5625411011009036e-19 -1.6648721927240348e-19 -1.9858508263088542e-03 -1.6792833089600836e-03 -4.5625411011009036e-19 -1.6792833089600836e-03 3.8472604547891177e-03  -3.4514895160878039e-14 -1.8148473690552225e-19 -5.1487678995302076e-19 -1.8148473690552225e-19 -1.8424410450737232e-03 -2.0224365628466129e-03 -5.1487678995302076e-19 -2.0224365628466129e-03 3.8034252228035938e-03  4.4979257778742022e-15 -1.7118539816422079e-19 -4.8905073466322419e-19 -1.7118539816422079e-19 -1.7566993303341713e-03 -1.9011293824928476e-03 -4.8905073466322419e-19 -1.9011293824928476e-03 3.6805934094010003e-03  4.1982944196267919e-14 -1.8018041782812327e-19 -5.0975911606701768e-19 -1.8018041782812327e-19 -2.0583353598752005e-03 -1.9668796926321135e-03 -5.0975911606701768e-19 -1.9668796926321135e-03 4.0617379850067499e-03  2.6132228851917849e-15 -1.6761313072538225e-19 -4.7399992787273677e-19 -1.6761313072538225e-19 -2.0510654618803477e-03 -1.7838466943308454e-03 -4.7399992787273677e-19 -1.7838466943308454e-03 4.0027459350801360e-03  1.5103973238448786e-15 -1.6916255451889868e-19 -4.6054084868955898e-19 -1.6916255451889868e-19 -2.1545926636876689e-03 -1.6678772328639552e-03 -4.6054084868955898e-19 -1.6678772328639552e-03 4.0678429061660470e-03  -2.2369492574354913e-13 -1.8558796708400437e-19 -5.3212200395543427e-19 -1.8558796708400437e-19 -2.1313400387335470e-03 -2.0886179788023158e-03 -5.3212200395543427e-19 -2.0886179788023158e-03 4.1967063179829782e-03  -5.6356156823939186e-14 -1.7217671652102528e-19 -4.8501758150405558e-19 -1.7217671652102528e-19 -2.0268663412718996e-03 -1.8498923423224008e-03 -4.8501758150405558e-19 -1.8498923423224008e-03 3.9627216683696250e-03  2.1003472820397939e-15 -1.4931970751112037e-19 -3.8641295010599044e-19 -1.4931970751112037e-19 -2.0748080417371875e-03 -1.2503183538203348e-03 -3.8641295010599044e-19 -1.2503183538203348e-03 3.8452634901100123e-03  -1.1623801895113839e-14 -1.5772076616571375e-19 -4.1063330833389861e-19 -1.5772076616571375e-19 -2.2181620262194447e-03 -1.3882734436814817e-03 -4.1063330833389861e-19 -1.3882734436814817e-03 3.9976824614970340e-03  9.6026639314797997e-13 -1.8887953495634889e-19 -5.3835012700068351e-19 -1.8887953495634889e-19 -1.9777857567008453e-03 -2.1162652866750825e-03 -5.3835012700068351e-19 -2.1162652866750825e-03 4.0407576977024295e-03  -3.5074246778498354e-13 -1.8387969922879859e-19 -5.1916846847901090e-19 -1.8387969922879859e-19 -2.2439373676028541e-03 -1.9929713810096852e-03 -5.1916846847901090e-19 -1.9929713810096852e-03 4.2980201099092966e-03  6.2468509715774515e-14 -1.7405673378754910e-19 -4.7590566553586149e-19 -1.7405673378754910e-19 -2.2930942870141666e-03 -1.7388822608044819e-03 -4.7590566553586149e-19 -1.7388822608044819e-03 4.2529567117056974e-03  -3.8498871153324367e-15 -1.6065320715173148e-19 -4.0388169086259983e-19 -1.6065320715173148e-19 -2.3730318918973150e-03 -1.2876861699296039e-03 -4.0388169086259983e-19 -1.2876861699296039e-03 4.1792743864550374e-03  1.4577288435448631e-14 -1.6698105621209498e-19 -4.4630172212926900e-19 -1.6698105621209498e-19 -2.2482635437888472e-03 -1.5806925616233610e-03 -4.4630172212926900e-19 -1.5806925616233610e-03 4.1186722083371118e-03  -4.5531603880948251e-15 -1.5797417601953014e-19 -3.8599213111956647e-19 -1.5797417601953014e-19 -2.3723891199973197e-03 -1.1739262060847546e-03 -3.8599213111956647e-19 -1.1739262060847546e-03 4.1321430183079103e-03  -4.5849980632064250e-15 -1.5295166362743266e-19 -3.6662126454917869e-19 -1.5295166362743266e-19 -2.4096724607453410e-03 -1.0451408007736435e-03 -3.6662126454917869e-19 -1.0451408007736435e-03 4.1685201995551755e-03  1.9661363363118519e-15 -1.5473583657805850e-19 -3.5399057737173833e-19 -1.5473583657805850e-19 -2.5053137505828215e-03 -9.2163677052863123e-04 -3.5399057737173833e-19 -9.2163677052863123e-04 4.2514945150904301e-03  -4.6653894726009335e-14 -1.6218849813845144e-19 -3.7154488418504649e-19 -1.6218849813845144e-19 -2.6534162773523958e-03 -1.0009324014609107e-03 -3.7154488418504649e-19 -1.0009324014609107e-03 4.4229808430855735e-03  -5.9901204706723358e-12 -1.9516718342567403e-19 -5.5277889104389986e-19 -1.9516718342567403e-19 -2.1771457186255741e-03 -2.1686006748631954e-03 -5.5277889104389986e-19 -2.1686006748631954e-03 4.2821041696100371e-03  7.6061448058098619e-14 -1.6384011753613925e-19 -3.8757681377591435e-19 -1.6384011753613925e-19 -2.6142166506770543e-03 -1.1167409046276718e-03 -3.8757681377591435e-19 -1.1167409046276718e-03 4.4112168488321104e-03  4.1580999385117354e-12 -1.8890026903860394e-19 -5.3353844165592215e-19 -1.8890026903860394e-19 -2.3378015473953513e-03 -2.0562058491395215e-03 -5.3353844165592215e-19 -2.0562058491395215e-03 4.4338392405404575e-03  -1.6285125728916138e-14 -1.7589174632275197e-19 -4.8817205942441641e-19 -1.7589174632275197e-19 -2.2423762400661882e-03 -1.8308442241381996e-03 -4.8817205942441641e-19 -1.8308442241381996e-03 4.2062297986363902e-03  3.7388019098456207e-13 -1.8277246363757918e-19 -5.0575098097562547e-19 -1.8277246363757918e-19 -2.2488516044050083e-03 -1.9137080183765584e-03 -5.0575098097562547e-19 -1.9137080183765584e-03 4.2396992897288707e-03  -3.8744824452792178e-14 -1.6819558137959217e-19 -4.0733645970466524e-19 -1.6819558137959217e-19 -2.5983142865321652e-03 -1.2468486866418127e-03 -4.0733645970466524e-19 -1.2468486866418127e-03 4.4125959952264733e-03  8.3758581160944271e-14 -1.6282070670511088e-19 -4.2279086644500316e-19 -1.6282070670511088e-19 -2.4393967331510979e-03 -1.4002011619843736e-03 -4.2279086644500316e-19 -1.4002011619843736e-03 4.3222004674779739e-03  -8.4104767472179406e-14 -1.7348659863542202e-19 -4.6371160160649153e-19 -1.7348659863542202e-19 -2.3815841019064190e-03 -1.6516247740500818e-03 -4.6371160160649153e-19 -1.6516247740500818e-03 4.3065634145744158e-03  3.3587129065254319e-13 -1.6989242408528493e-19 -3.8700633058474583e-19 -1.6989242408528493e-19 -2.8100246935390057e-03 -1.0589172985584114e-03 -3.8700633058474583e-19 -1.0589172985584114e-03 4.6033665307256269e-03  3.2948194838052913e-16 -1.6589786424915853e-19 -4.3245735667190489e-19 -1.6589786424915853e-19 -2.3658890573657128e-03 -1.4748527352363254e-03 -4.3245735667190489e-19 -1.4748527352363254e-03 4.2180925098823461e-03  -2.5421869970831196e-12 -1.8748906567335918e-19 -5.2078864771850133e-19 -1.8748906567335918e-19 -2.4148469433536322e-03 -1.9627004786610495e-03 -5.2078864771850133e-19 -1.9627004786610495e-03 4.4936374749521427e-03  3.4528244153554989e-12 -1.9537785388230824e-19 -5.4677975747274735e-19 -1.9537785388230824e-19 -2.3604452811466256e-03 -2.1059179671277023e-03 -5.4677975747274735e-19 -2.1059179671277023e-03 4.4789032820654962e-03  -7.6468658225226925e-13 -1.8019402252298356e-19 -4.9113986806842937e-19 -1.8019402252298356e-19 -2.4455716112378348e-03 -1.8051609462996527e-03 -4.9113986806842937e-19 -1.8051609462996527e-03 4.4367520936326021e-03  -3.3236979103024906e-11 -1.9751057847467754e-19 -5.4588687363640286e-19 -1.9751057847467754e-19 -2.4963593001394650e-03 -2.0734182157205456e-03 -5.4588687363640286e-19 -2.0734182157205456e-03 4.6253122145244706e-03  2.0371541814811523e-11 -1.9725876480227198e-19 -5.6447396736870707e-19 -1.9725876480227198e-19 -2.3796244691515790e-03 -2.2149154529047367e-03 -5.6447396736870707e-19 -2.2149154529047367e-03 4.5649546018572129e-03  4.1030015751252022e-13 -1.7885513873695612e-19 -4.7934933652829095e-19 -1.7885513873695612e-19 -2.4964518454482333e-03 -1.7200839905105289e-03 -4.7934933652829095e-19 -1.7200839905105289e-03 4.4695060940479984e-03  -1.6008088681658012e-14 -1.7252622821174376e-19 -4.5328105060925616e-19 -1.7252622821174376e-19 -2.4767074855793999e-03 -1.5744705473166500e-03 -4.5328105060925616e-19 -1.5744705473166500e-03 4.3853956450417174e-03  4.7874618296282889e-13 -1.9280312432631078e-19 -5.3400539543593477e-19 -1.9280312432631078e-19 -2.5438485109310731e-03 -2.0223200507958295e-03 -5.3400539543593477e-19 -2.0223200507958295e-03 4.6457620944061265e-03  -1.4086319420640823e-11 -2.0021358706396278e-19 -5.5775133785240110e-19 -2.0021358706396278e-19 -2.4965285572623066e-03 -2.1401533700969038e-03 -5.5775133785240110e-19 -2.1401533700969038e-03 4.6570493137828659e-03  3.1819835719780950e-11 -2.0308806064623814e-19 -5.7072826766799015e-19 -2.0308806064623814e-19 -2.3013497739582515e-03 -2.2235156297611826e-03 -5.7072826766799015e-19 -2.2235156297611826e-03 4.4771357754738676e-03  4.1132505503571264e-13 -1.8428324076626836e-19 -5.0470590628439302e-19 -1.8428324076626836e-19 -2.4283202713023515e-03 -1.8764130209417912e-03 -5.0470590628439302e-19 -1.8764130209417912e-03 4.4477158183553736e-03  7.8811143084252159e-14 -1.7858310631797590e-19 -4.6871340431481251e-19 -1.7858310631797590e-19 -2.5825318211829952e-03 -1.6401844300098761e-03 -4.6871340431481251e-19 -1.6401844300098761e-03 4.5286857691106660e-03  -6.6960385257258653e-13 -1.7430263494275112e-19 -4.0333527316437565e-19 -1.7430263494275112e-19 -2.8112588875676705e-03 -1.1560459539724629e-03 -4.0333527316437565e-19 -1.1560459539724629e-03 4.6250521948859582e-03  -4.3612398155388562e-13 -1.7154897722362025e-19 -4.2710662157622592e-19 -1.7154897722362025e-19 -2.6816518213712186e-03 -1.3714486934780030e-03 -4.2710662157622592e-19 -1.3714486934780030e-03 4.5424716810552506e-03  -6.6163443352122085e-14 -1.7372251126234150e-19 -4.4055517949777669e-19 -1.7372251126234150e-19 -2.6249487447726760e-03 -1.4642376465499815e-03 -4.4055517949777669e-19 -1.4642376465499815e-03 4.5033034724818862e-03  -1.4276398091773187e-10 -2.0448084186251237e-19 -5.7605618909405617e-19 -2.0448084186251237e-19 -2.4877654948246924e-03 -2.2397408986320555e-03 -5.7605618909405617e-19 -2.2397408986320555e-03 4.7019897933605458e-03  -1.2464403478503649e-12 -1.8467189273230047e-19 -4.9295339618247996e-19 -1.8467189273230047e-19 -2.6232312603811339e-03 -1.7755223948754551e-03 -4.9295339618247996e-19 -1.7755223948754551e-03 4.6256923243910252e-03  1.2628742301144964e-12 -1.7703178539737556e-19 -4.2336856198406646e-19 -1.7703178539737556e-19 -2.8608364083591523e-03 -1.2829043119660293e-03 -4.2336856198406646e-19 -1.2829043119660293e-03 4.7326366479266925e-03  2.1516626350585165e-11 -1.9183804776097886e-19 -5.2872947584963109e-19 -1.9183804776097886e-19 -2.5948651671784638e-03 -1.9833586698480773e-03 -5.2872947584963109e-19 -1.9833586698480773e-03 4.6970443105329319e-03  1.4387887601948271e-10 -2.0015858229186085e-19 -5.4928092367349384e-19 -2.0015858229186085e-19 -2.6586566176665500e-03 -2.0673609455210910e-03 -5.4928092367349384e-19 -2.0673609455210910e-03 4.8131640005942208e-03  1.9616072251736333e-13 -1.7903403820051390e-19 -4.5884226045978311e-19 -1.7903403820051390e-19 -2.7020298415731626e-03 -1.5657136331340741e-03 -4.5884226045978311e-19 -1.5657136331340741e-03 4.6111793977055638e-03  -8.0713372486315335e-13 -1.8402182546182578e-19 -4.8288550925390791e-19 -1.8402182546182578e-19 -2.6877707739181383e-03 -1.7021307149863905e-03 -4.8288550925390791e-19 -1.7021307149863905e-03 4.6673588421734151e-03  -1.7878865017144975e-15 -1.7624279912462186e-19 -3.8852741442746537e-19 -1.7624279912462186e-19 -2.9838901826434693e-03 -1.0148999126663803e-03 -3.8852741442746537e-19 -1.0148999126663803e-03 4.7782700148045459e-03  -1.3688854307262008e-12 -1.7842628330784762e-19 -3.9973325765333189e-19 -1.7842628330784762e-19 -2.9782792804105007e-03 -1.0916107493755701e-03 -3.9973325765333189e-19 -1.0916107493755701e-03 4.7817698077089361e-03  9.9073178013792673e-13 -1.7955428605842237e-19 -4.3791527458969206e-19 -1.7955428605842237e-19 -2.8389268512836268e-03 -1.3928379201812472e-03 -4.3791527458969206e-19 -1.3928379201812472e-03 4.7074688196085714e-03  -1.3624047383116697e-10 -1.9680547164884200e-19 -5.3801341447687621e-19 -1.9680547164884200e-19 -2.7141805548318658e-03 -2.0097308029245358e-03 -5.3801341447687621e-19 -2.0097308029245358e-03 4.8413745332067607e-03  9.0053673488711265e-11 -2.0174044535047762e-19 -5.5606589817871996e-19 -2.0174044535047762e-19 -2.6033712006777792e-03 -2.1061560702172652e-03 -5.5606589817871996e-19 -2.1061560702172652e-03 4.7740191496509635e-03  -4.5862984532735369e-12 -1.9165667020629873e-19 -5.1559058083474720e-19 -1.9165667020629873e-19 -2.5987175087165805e-03 -1.8992799581404088e-03 -5.1559058083474720e-19 -1.8992799581404088e-03 4.6356321400589416e-03  5.4844720925007975e-12 -1.8674884073182227e-19 -5.0448361121453868e-19 -1.8674884073182227e-19 -2.5910115763093451e-03 -1.8465590169110878e-03 -5.0448361121453868e-19 -1.8465590169110878e-03 4.6216943292506883e-03  -3.1548929470149928e-13 -1.8420590287335823e-19 -4.7489769954439171e-19 -1.8420590287335823e-19 -2.7773150928434129e-03 -1.6341919844181253e-03 -4.7489769954439171e-19 -1.6341919844181253e-03 4.7455689920454678e-03  2.0439672782350007e-12 -1.8307717805407899e-19 -3.9982170844073339e-19 -1.8307717805407899e-19 -3.1123012203918979e-03 -1.0515966024814735e-03 -3.9982170844073339e-19 -1.0515966024814735e-03 4.9136303646526991e-03  3.3969477388575300e-11 -1.9491577502403468e-19 -5.2634012697112998e-19 -1.9491577502403468e-19 -2.7139651373233467e-03 -1.9296433470996869e-03 -5.2634012697112998e-19 -1.9296433470996869e-03 4.8250888627846223e-03  4.1569974776894933e-12 -1.8281970282458101e-19 -4.1357747349875914e-19 -1.8281970282458101e-19 -3.0145946936059077e-03 -1.1700139603743860e-03 -4.1357747349875914e-19 -1.1700139603743860e-03 4.8315292212553910e-03  -1.9961326431190252e-12 -1.8426433981091607e-19 -4.3509752955349039e-19 -1.8426433981091607e-19 -3.0054110050483692e-03 -1.3189678435115183e-03 -4.3509752955349039e-19 -1.3189678435115183e-03 4.8860843534603363e-03  -2.7664329717362766e-13 -1.8129012175815207e-19 -4.5357543288576218e-19 -1.8129012175815207e-19 -2.8121740077683660e-03 -1.4873021541060199e-03 -4.5357543288576218e-19 -1.4873021541060199e-03 4.7426258019340863e-03  8.9056393828592567e-12 -1.8916547568962118e-19 -4.9506714290867957e-19 -1.8916547568962118e-19 -2.7949334071036159e-03 -1.7505881125591159e-03 -4.9506714290867957e-19 -1.7505881125591159e-03 4.8043917377957046e-03  -6.2209855407908817e-10 -2.0552114891203342e-19 -5.6058054655503492e-19 -2.0552114891203342e-19 -2.7327756053482236e-03 -2.1006571484266517e-03 -5.6058054655503492e-19 -2.1006571484266517e-03 4.9276415479753820e-03  -3.0897359416627292e-11 -2.0202216877581917e-19 -5.6846959319171419e-19 -2.0202216877581917e-19 -2.5184671535241703e-03 -2.1968725732178502e-03 -5.6846959319171419e-19 -2.1968725732178502e-03 4.7260518814950378e-03  -5.3080348703268063e-12 -1.9046661306459846e-19 -5.0474367869697381e-19 -1.9046661306459846e-19 -2.7471999035427533e-03 -1.8138139966259303e-03 -5.0474367869697381e-19 -1.8138139966259303e-03 4.7810842023670039e-03  5.9837355910798919e-11 -2.0312858383274064e-19 -5.6716366884935649e-19 -2.0312858383274064e-19 -2.6100994621340279e-03 -2.1593718244625735e-03 -5.6716366884935649e-19 -2.1593718244625735e-03 4.8492290258063571e-03  -8.4686095746026532e-12 -1.8589149795290255e-19 -4.4974094023011475e-19 -1.8589149795290255e-19 -3.0225688229412982e-03 -1.4131804918935654e-03 -4.4974094023011475e-19 -1.4131804918935654e-03 4.9492968219031555e-03  -1.8517703947944268e-10 -2.0336012372422046e-19 -5.5032417860526301e-19 -2.0336012372422046e-19 -2.8058449878144492e-03 -2.0451827504699913e-03 -5.5032417860526301e-19 -2.0451827504699913e-03 4.9658278696130993e-03  2.7054942150529300e-10 -2.0684286447504919e-19 -5.7745976202197828e-19 -2.0684286447504919e-19 -2.6332245329078814e-03 -2.2195212365503838e-03 -5.7745976202197828e-19 -2.2195212365503838e-03 4.8706230876641790e-03  -2.2274819649208931e-12 -1.8862337628137401e-19 -4.8701686435307460e-19 -1.8862337628137401e-19 -2.8542472610366171e-03 -1.6914043448204498e-03 -4.8701686435307460e-19 -1.6914043448204498e-03 4.8468177736987585e-03  -7.6477984232109932e-13 -1.8429717727336147e-19 -4.6777161025320421e-19 -1.8429717727336147e-19 -2.8716940047967426e-03 -1.5789321345259359e-03 -4.6777161025320421e-19 -1.5789321345259359e-03 4.8204511371637603e-03  -1.2342576452333094e-11 -1.8437718909253645e-19 -4.2809854608051265e-19 -1.8437718909253645e-19 -3.0745119929025031e-03 -1.2591131614078596e-03 -4.2809854608051265e-19 -1.2591131614078596e-03 4.9467792954547545e-03  -2.5787561355648757e-11 -1.9305259959911021e-19 -5.1608962317624512e-19 -1.9305259959911021e-19 -2.7267748721215958e-03 -1.8783753554896610e-03 -5.1608962317624512e-19 -1.8783753554896610e-03 4.7893417856026826e-03  1.8806563355783504e-11 -1.9149783201458330e-19 -4.4654564594890533e-19 -1.9149783201458330e-19 -3.1222126386297659e-03 -1.3476644693529338e-03 -4.4654564594890533e-19 -1.3476644693529338e-03 5.0214166967221061e-03  1.1301690395514176e-09 -2.0244037328412272e-19 -5.4533129901316656e-19 -2.0244037328412272e-19 -2.8759165632836884e-03 -2.0065980069370682e-03 -5.4533129901316656e-19 -2.0065980069370682e-03 5.0396965911159303e-03  5.7873708027544850e-12 -1.8931642992097412e-19 -4.8089747658780939e-19 -1.8931642992097412e-19 -2.9336744028207735e-03 -1.6376431996261937e-03 -4.8089747658780939e-19 -1.6376431996261937e-03 4.9110451876114309e-03  1.4541419512197962e-12 -1.8627589538894116e-19 -4.6013837133906969e-19 -1.8627589538894116e-19 -2.9409499727045332e-03 -1.4934765005276468e-03 -4.6013837133906969e-19 -1.4934765005276468e-03 4.8874647531164965e-03  3.6097048451024092e-12 -1.8637936501509912e-19 -4.1045168834482308e-19 -1.8637936501509912e-19 -3.1237799652355223e-03 -1.1118660215142225e-03 -4.1045168834482308e-19 -1.1118660215142225e-03 4.9365760568336643e-03  -1.9893472491377094e-11 -1.8931735757791523e-19 -4.0963927646091164e-19 -1.8931735757791523e-19 -3.2284489185960101e-03 -1.0748402347577608e-03 -4.0963927646091164e-19 -1.0748402347577608e-03 5.0477352564256535e-03  -2.5317228809899700e-11 -2.0895693155137834e-19 -5.7216453673148903e-19 -2.0895693155137834e-19 -2.7469858526551214e-03 -2.1634610629848502e-03 -5.7216453673148903e-19 -2.1634610629848502e-03 4.9630302174402344e-03  -9.6704807585929628e-11 -1.9958384791066730e-19 -5.33637261572187