<?xml version="1.0"?>
<VTKFile type="UnstructuredGrid"  version="0.1"  >
<UnstructuredGrid>
<Piece  NumberOfPoints="10381" NumberOfCells="20287">
<Points>
<DataArray  type="Float64"  NumberOfComponents="3"  format="ascii">4.1030663791399e-23 9.999999999999972e-07 7.792863567657969e-08  4.104251851164359e-23 9.999999999999972e-07 7.782185784922752e-08  4.102570586031411e-23 9.998971199776666e-07 7.787041272742203e-08  4.101807295283632e-23 9.999999999999972e-07 7.804204386829804e-08  4.101297964887764e-23 9.998966883850874e-07 7.798460865700906e-08  4.100632950817176e-23 9.999999999999972e-07 7.814781941432872e-08  4.100056719860206e-23 9.998959274419311e-07 7.809564912672445e-08  4.09940620323202e-23 9.999999999999972e-07 7.825831501367647e-08  4.098897787265661e-23 9.998985622489619e-07 7.820267130177402e-08  4.098149454428939e-23 9.999999999999972e-07 7.837151288250154e-08  4.097632840406858e-23 9.998949945174192e-07 7.831303985427029e-08  4.09696340823631e-23 9.999999999999972e-07 7.84783424263249e-08  4.09641708074395e-23 9.99896807583321e-07 7.842435881546902e-08  4.095798190658886e-23 9.999999999999972e-07 7.858329589527483e-08  4.095201735866943e-23 9.998942901159937e-07 7.853130988284607e-08  4.094618351930334e-23 9.999999999999972e-07 7.868956632044003e-08  4.094041444545889e-23 9.998945965684769e-07 7.863612608655197e-08  4.093433307498163e-23 9.999999999999972e-07 7.879630563370293e-08  4.092861134746824e-23 9.998940855879984e-07 7.874192796149852e-08  4.092268089920738e-23 9.999999999999972e-07 7.890125910265286e-08  4.091602955555987e-23 9.998911792782595e-07 7.885234835845994e-08  4.091087249431729e-23 9.999999999999972e-07 7.900761975837853e-08  4.090464447275328e-23 9.998941567042928e-07 7.895787349386398e-08  4.089801143692074e-23 9.999999999999972e-07 7.912346186497589e-08  4.089268268541987e-23 9.99895212985851e-07 7.906667197737706e-08  4.088554679564634e-23 9.999999999999972e-07 7.923573337257334e-08  4.087954568246275e-23 9.998931136873578e-07 7.918290028212871e-08  4.087367255481885e-23 9.999999999999972e-07 7.934268702570532e-08  4.086776212829414e-23 9.998929927091906e-07 7.928891612428725e-08  4.086106974004979e-23 9.999999999999972e-07 7.945620308950084e-08  4.085537864543617e-23 9.998911710249765e-07 7.939863493764251e-08  4.084883759093648e-23 9.999999999999972e-07 7.956638049387814e-08  4.084357067161895e-23 9.998955228286238e-07 7.950934351425628e-08  4.083683060288736e-23 9.999999999999972e-07 7.967452982768584e-08  4.083165059013727e-23 9.998944804633205e-07 7.961566769799125e-08  4.082511126934015e-23 9.999999999999972e-07 7.978008820007833e-08  4.081884550029551e-23 9.998938012331319e-07 7.973032646348223e-08  4.081317159636978e-23 9.999999999999972e-07 7.988763121355893e-08  4.08068006315587e-23 9.998938730067422e-07 7.983888876980224e-08  4.080040102481433e-23 9.999999999999972e-07 8.000265829615571e-08  4.079540331770567e-23 9.998951116323047e-07 7.994278527220779e-08  4.078683595852034e-23 9.999999999999972e-07 8.012484155116946e-08  4.078194953170691e-23 9.998920003920189e-07 8.006085496314339e-08  4.077518378274609e-23 9.999999999999972e-07 8.022979502011942e-08  4.076884940753025e-23 9.998907979899197e-07 8.017764798976534e-08  4.076353160697184e-23 9.999999999999972e-07 8.033474848906937e-08  4.075700442008041e-23 9.998907662463965e-07 8.028430640837273e-08  4.075184663215026e-23 9.999999999999972e-07 8.043999738557396e-08  4.074616617691683e-23 9.998949548320778e-07 8.038611720979971e-08  4.073988277536462e-23 9.999999999999972e-07 8.054775822749744e-08  4.073405826287652e-23 9.998942811716886e-07 8.049450194373086e-08  4.072823059959036e-23 9.999999999999972e-07 8.06527116964474e-08  4.072171484490231e-23 9.998923023234548e-07 8.060370272067525e-08  4.071653560716421e-23 9.999999999999972e-07 8.075805082351248e-08  4.071045512145362e-23 9.99894293822677e-07 8.070711279255313e-08  4.070439235453762e-23 9.999999999999972e-07 8.086742751952081e-08  4.069877415655103e-23 9.998955466731232e-07 8.081357842136463e-08  4.069170064328183e-23 9.999999999999972e-07 8.09817442916853e-08  4.068641558894424e-23 9.998957056636689e-07 8.092505349284776e-08  4.067944221062225e-23 9.999999999999972e-07 8.109215843720101e-08  4.067428819204027e-23 9.998965725053369e-07 8.103515421487124e-08  4.066699834608413e-23 9.999999999999972e-07 8.120424280459483e-08  4.066165813444065e-23 9.998920546338537e-07 8.114439778878674e-08  4.065521366093099e-23 9.999999999999972e-07 8.131038981192355e-08  4.064867940504563e-23 9.998921251794205e-07 8.126137033608775e-08  4.064284045154345e-23 9.999999999999972e-07 8.142183777429778e-08  4.06375332521704e-23 9.998946432421975e-07 8.136428401873578e-08  4.063055613144389e-23 9.999999999999972e-07 8.153248509314352e-08  4.062546501478935e-23 9.998951042191827e-07 8.147344601446554e-08  4.061872667858015e-23 9.999999999999972e-07 8.163903533216178e-08  4.061366521144374e-23 9.998972241056168e-07 8.15818490808004e-08  4.060690729983667e-23 9.999999999999972e-07 8.174549483157161e-08  4.060149892498071e-23 9.998962517077913e-07 8.169046084933768e-08  4.059506767206257e-23 9.999999999999972e-07 8.185213671803489e-08  4.058867521359565e-23 9.998929403253023e-07 8.180265519047916e-08  4.058255359922289e-23 9.999999999999972e-07 8.196485346559018e-08  4.057706907047637e-23 9.998963277795014e-07 8.191058148833271e-08  4.057046508519643e-23 9.999999999999972e-07 8.207373712012029e-08  4.056482673151468e-23 9.998973225551928e-07 8.202184545039608e-08  4.055881290942217e-23 9.999999999999972e-07 8.217869058907023e-08  4.055312316660336e-23 9.998962721109075e-07 8.212621134725779e-08  4.054692867124326e-23 9.999999999999972e-07 8.22857342903385e-08  4.054145805328846e-23 9.998965051496069e-07 8.223151438591359e-08  4.053492168319415e-23 9.999999999999972e-07 8.23938836241462e-08  4.052939781855432e-23 9.998970080987735e-07 8.234064627238962e-08  4.052291469514503e-23 9.999999999999972e-07 8.25020329579539e-08  4.051698063047124e-23 9.998955692626972e-07 8.245105152356116e-08  4.051023326882401e-23 9.999999999999972e-07 8.261625709166163e-08  4.050539263000308e-23 9.998952267049353e-07 8.255508439498012e-08  4.049837738311599e-23 9.999999999999972e-07 8.272304541657522e-08  4.049289100178064e-23 9.998961894337433e-07 8.266865178019633e-08  4.048672520734173e-23 9.999999999999972e-07 8.282799888552517e-08  4.048129094908083e-23 9.998963519977135e-07 8.277329833019915e-08  4.047401337266011e-23 9.999999999999972e-07 8.294249691339592e-08  4.046955391488171e-23 9.998958242965198e-07 8.287848843469669e-08  4.046227964853447e-23 9.999999999999972e-07 8.304818490459571e-08  4.045641019319852e-23 9.998932541035284e-07 8.299430636185461e-08  4.045029570002399e-23 9.999999999999972e-07 8.315612671668809e-08  4.044482124117367e-23 9.998955466397812e-07 8.310098289814892e-08  4.043863081692724e-23 9.999999999999972e-07 8.32611946430238e-08  4.043215482966676e-23 9.99895149297924e-07 8.321467444857694e-08  4.042663669350641e-23 9.999999999999972e-07 8.336922810256117e-08  4.042092098398427e-23 9.998959251971341e-07 8.331663583424619e-08  4.041498198532002e-23 9.999999999999972e-07 8.347420438145189e-08  4.040862818303352e-23 9.998943386396115e-07 8.34257729842859e-08  4.040332980954577e-23 9.999999999999972e-07 8.357915785040183e-08  4.039737495930887e-23 9.99895277899595e-07 8.35280722726155e-08  4.039034189928916e-23 9.999999999999972e-07 8.36961425459858e-08  4.038526176305936e-23 9.998955324685156e-07 8.363743281376725e-08  4.037705115455894e-23 9.999999999999972e-07 8.381585493201481e-08  4.037238783441592e-23 9.998970597428923e-07 8.375491812862674e-08  4.036531172928689e-23 9.999999999999972e-07 8.392159427457622e-08  4.035918228843448e-23 9.998950998607194e-07 8.387190323037629e-08  4.035305455846802e-23 9.999999999999972e-07 8.403199705444121e-08  4.034760383881054e-23 9.998949316884551e-07 8.397602446093589e-08  4.03406089399187e-23 9.999999999999972e-07 8.41440972205635e-08  4.03354016006036e-23 9.99896096566077e-07 8.408709732944137e-08  4.032882474693606e-23 9.999999999999972e-07 8.425023979481445e-08  4.03235156959192e-23 9.998972345481479e-07 8.419529402332755e-08  4.031696010831147e-23 9.999999999999972e-07 8.43571069589916e-08  4.031144544255094e-23 9.998981989007331e-07 8.430497755305596e-08  4.030516574041848e-23 9.999999999999972e-07 8.446334118068755e-08  4.029878196837402e-23 9.998955128637661e-07 8.441635395125759e-08  4.029331127670425e-23 9.999999999999972e-07 8.457011669741967e-08  4.028696074622158e-23 9.998933728430822e-07 8.452069003393542e-08  4.028072544806718e-23 9.999999999999972e-07 8.468347976373977e-08  4.027530455789317e-23 9.998953367656587e-07 8.462764356733667e-08  4.026796580092003e-23 9.999999999999972e-07 8.479840844801432e-08  4.026303403560523e-23 9.998960576486677e-07 8.473888748955289e-08  4.02553989746028e-23 9.999999999999972e-07 8.491160035665338e-08  4.02500341123569e-23 9.998953800444774e-07 8.485530278435658e-08  4.024338379011019e-23 9.999999999999972e-07 8.501982351746076e-08  4.023733227424632e-23 9.998931247739058e-07 8.496745550054847e-08  4.023083069360232e-23 9.999999999999972e-07 8.513289175897113e-08  4.022591421807489e-23 9.998958333344035e-07 8.507300876808409e-08  4.021893823130293e-23 9.999999999999972e-07 8.52400095365313e-08  4.021318929689361e-23 9.998929690801102e-07 8.518476041437148e-08  4.020699882426747e-23 9.999999999999972e-07 8.534755015468311e-08  4.020141408891328e-23 9.998958559441525e-07 8.529370892295859e-08  4.019422893452352e-23 9.999999999999972e-07 8.54625710960679e-08  4.018869933727793e-23 9.998971765342856e-07 8.540955381454585e-08  4.018216386038509e-23 9.999999999999972e-07 8.557124362285594e-08  4.017638372451043e-23 9.998962952312419e-07 8.551960168964318e-08  4.016935815357094e-23 9.999999999999972e-07 8.568658717572881e-08  4.016424275471094e-23 9.998972682656653e-07 8.562993085819645e-08  4.015762717544473e-23 9.999999999999972e-07 8.579225043316467e-08  4.015213005645381e-23 9.99897
[...]
<PointData  Tensors="f_71"> 
<DataArray  type="Float64"  Name="f_71"  NumberOfComponents="9" format="ascii">1.6638272574168444e+06 -1.6359719070509202e-08 -1.3599221981701593e-08 -1.6359719070509202e-08 -2.5251816551948103e+05 -4.1247894499859842e+05 -1.3599221981701593e-08 -4.1247894499859842e+05 8.9627143555033773e+07  1.7694296159517244e+06 -1.6268038857611703e-08 -1.3684930510565547e-08 -1.6268038857611703e-08 -1.3621948437147404e+05 -4.7742862638212467e+05 -1.3684930510565547e-08 -4.7742862638212467e+05 9.1735317546733305e+07  1.8920189201122031e+06 -1.6280131793230092e-08 -1.3872658260162444e-08 -1.6280131793230092e-08 3.1908578180302702e+04 -1.8041298081199094e+06 -1.3872658260162444e-08 -1.8041298081199094e+06 9.3286409912621081e+07  1.6701875650695926e+06 -1.6432860286153416e-08 -1.3516824934739379e-08 -1.6432860286153416e-08 -1.6829022468526429e+05 -4.6725306508764887e+05 -1.3516824934739379e-08 -4.6725306508764887e+05 8.7664637045868352e+07  1.8377672590229234e+06 -1.6359626199921053e-08 -1.3781307885138814e-08 -1.6359626199921053e-08 1.1031897865690464e+04 -1.8008468460370293e+06 -1.3781307885138814e-08 -1.8008468460370293e+06 9.1151636284492657e+07  1.6027733173131177e+06 -1.6507746507253436e-08 -1.3422614802687742e-08 -1.6507746507253436e-08 -2.1410872562983539e+05 -4.2909145744476753e+05 -1.3422614802687742e-08 -4.2909145744476753e+05 8.5549738403795600e+07  1.8053188812646132e+06 -1.6440241125772942e-08 -1.3698157913325908e-08 -1.6440241125772942e-08 2.5002563276752851e+04 -1.7938566876184132e+06 -1.3698157913325908e-08 -1.7938566876184132e+06 8.9158942408461288e+07  1.5900802853061068e+06 -1.6590418812350114e-08 -1.3350385385464834e-08 -1.6590418812350114e-08 -1.6873466358448012e+05 -4.5812187124671385e+05 -1.3350385385464834e-08 -4.5812187124671385e+05 8.3690400715810910e+07  1.7625388249378973e+06 -1.6517247637485024e-08 -1.3615756079322279e-08 -1.6517247637485024e-08 1.9329124209554349e+04 -1.8016164371013115e+06 -1.3615756079322279e-08 -1.8016164371013115e+06 8.7183650430922240e+07  1.5210983033743403e+06 -1.6669345997341309e-08 -1.3261167048025968e-08 -1.6669345997341309e-08 -2.1793894111674596e+05 -4.5051067383373872e+05 -1.3261167048025968e-08 -4.5051067383373872e+05 8.1589100163773865e+07  1.7194816432223811e+06 -1.6600099963315776e-08 -1.3537314361795107e-08 -1.6600099963315776e-08 1.3351146235681108e+04 -1.8300071476681933e+06 -1.3537314361795107e-08 -1.8300071476681933e+06 8.5202808356045127e+07  1.4852487775174193e+06 -1.6752720143958968e-08 -1.3183800364010040e-08 -1.6752720143958968e-08 -2.1229636808185949e+05 -4.5510852344538178e+05 -1.3183800364010040e-08 -4.5510852344538178e+05 7.9652498035881191e+07  1.6814855982833600e+06 -1.6675575404268414e-08 -1.3456015344096126e-08 -1.6675575404268414e-08 1.6298001172789900e+04 -1.8635823655721541e+06 -1.3456015344096126e-08 -1.8635823655721541e+06 8.3232331767851636e+07  1.4342502435015563e+06 -1.6826098823117064e-08 -1.3099146801090577e-08 -1.6826098823117064e-08 -2.3259365234483228e+05 -4.6306509861185425e+05 -1.3099146801090577e-08 -4.6306509861185425e+05 7.7663927965894133e+07  1.6434644497211112e+06 -1.6755827541608106e-08 -1.3372775300726995e-08 -1.6755827541608106e-08 1.9873726868751459e+04 -1.8508219645206060e+06 -1.3372775300726995e-08 -1.8508219645206060e+06 8.1243590256476730e+07  1.4002439193744143e+06 -1.6902446829775929e-08 -1.3018270494127993e-08 -1.6902446829775929e-08 -2.2328890053018945e+05 -4.7489252753513580e+05 -1.3018270494127993e-08 -4.7489252753513580e+05 7.5719956660645470e+07  1.6157664601624273e+06 -1.6831423876790316e-08 -1.3297797922629236e-08 -1.6831423876790316e-08 3.7497945560811910e+04 -1.8775829056576693e+06 -1.3297797922629236e-08 -1.8775829056576693e+06 7.9388426670290709e+07  1.3606096845039765e+06 -1.6989268091677298e-08 -1.2948266246723959e-08 -1.6989268091677298e-08 -2.2770006552871014e+05 -4.8387206355003902e+05 -1.2948266246723959e-08 -4.8387206355003902e+05 7.3867051513747200e+07  1.5516142601934040e+06 -1.6912645681086871e-08 -1.3219909560982694e-08 -1.6912645681086871e-08 -8.7542681448098938e+03 -1.8762969285067900e+06 -1.3219909560982694e-08 -1.8762969285067900e+06 7.7447587779370040e+07  1.3202115719293051e+06 -1.7062082782827678e-08 -1.2855364364559687e-08 -1.7062082782827678e-08 -2.2479512352012843e+05 -4.7300354706390144e+05 -1.2855364364559687e-08 -4.7300354706390144e+05 7.1778178398624137e+07  1.5344240574285642e+06 -1.6993082385250131e-08 -1.3134866736002520e-08 -1.6993082385250131e-08 3.4001123917202480e+04 -1.8702055108598226e+06 -1.3134866736002520e-08 -1.8702055108598226e+06 7.5435318842291251e+07  1.3042699636552862e+06 -1.7140688097535630e-08 -1.2770761257254506e-08 -1.7140688097535630e-08 -1.8034411061831290e+05 -4.7257317685813928e+05 -1.2770761257254506e-08 -4.7257317685813928e+05 6.9782162032663763e+07  1.4932980941057915e+06 -1.7075212844056596e-08 -1.3056861966452348e-08 -1.7075212844056596e-08 2.9313063929415672e+04 -1.8557215064783392e+06 -1.3056861966452348e-08 -1.8557215064783392e+06 7.3515675098718241e+07  1.2598079411601527e+06 -1.7237585791873343e-08 -1.2700269601622786e-08 -1.7237585791873343e-08 -1.8922413033359731e+05 -5.0718168149116641e+05 -1.2700269601622786e-08 -5.0718168149116641e+05 6.7809935174468070e+07  1.4297885677262580e+06 -1.7166695535101854e-08 -1.2976474295805864e-08 -1.7166695535101854e-08 -1.2581360643572007e+04 -1.8222920498021520e+06 -1.2976474295805864e-08 -1.8222920498021520e+06 7.1488905357962146e+07  1.2012347333024675e+06 -1.7323798874903007e-08 -1.2613692609810394e-08 -1.7323798874903007e-08 -2.1783126969711861e+05 -5.2790942241683661e+05 -1.2613692609810394e-08 -5.2790942241683661e+05 6.5669282318791792e+07  1.4243825285881516e+06 -1.7253616015332828e-08 -1.2891498111791264e-08 -1.7253616015332828e-08 5.3740698666049480e+04 -1.8243236962747357e+06 -1.2891498111791264e-08 -1.8243236962747357e+06 6.9425377317275107e+07  1.1635566932137993e+06 -1.7412426515761023e-08 -1.2538199788714769e-08 -1.7412426515761023e-08 -2.1667366127626580e+05 -4.9321522774893104e+05 -1.2538199788714769e-08 -4.9321522774893104e+05 6.3763042843904234e+07  1.3893164263457449e+06 -1.7335749971420166e-08 -1.2813326937874205e-08 -1.7335749971420166e-08 6.1136602906444183e+04 -1.8342862858098112e+06 -1.2813326937874205e-08 -1.8342862858098112e+06 6.7480318636837617e+07  1.1240706589018933e+06 -1.7497495832136953e-08 -1.2443002675561134e-08 -1.7497495832136953e-08 -2.0874876881180759e+05 -4.4305799602274405e+05 -1.2443002675561134e-08 -4.4305799602274405e+05 6.1583728380270280e+07  1.3410223976204197e+06 -1.7424652780877832e-08 -1.2737195137630868e-08 -1.7424652780877832e-08 4.5743143941388473e+04 -1.8548266778708955e+06 -1.2737195137630868e-08 -1.8548266778708955e+06 6.5493643218485042e+07  1.0799452444611001e+06 -1.7590388569854020e-08 -1.2365560016861440e-08 -1.7590388569854020e-08 -2.1584175488415308e+05 -4.3378134043815895e+05 -1.2365560016861440e-08 -4.3378134043815895e+05 5.9579898831422150e+07  1.3019253524660352e+06 -1.7516415554591970e-08 -1.2661380827501870e-08 -1.7516415554591970e-08 4.7088858840426074e+04 -1.8607781487998024e+06 -1.2661380827501870e-08 -1.8607781487998024e+06 6.3511702154979125e+07  9.9722828099951870e+05 -1.7690400315846218e-08 -1.2303264693823692e-08 -1.7690400315846218e-08 -2.9939097142456140e+05 -4.3581637269896059e+05 -1.2303264693823692e-08 -4.3581637269896059e+05 5.7724415751433812e+07  1.2445989762294625e+06 -1.7612438881873963e-08 -1.2588919713871167e-08 -1.7612438881873963e-08 1.4132789054446595e+04 -1.8545646095706706e+06 -1.2588919713871167e-08 -1.8545646095706706e+06 6.1550765146904759e+07  9.9203251270132267e+05 -1.7778547541629839e-08 -1.2225233699870972e-08 -1.7778547541629839e-08 -2.3481806441128778e+05 -4.7823124553418858e+05 -1.2225233699870972e-08 -4.7823124553418858e+05 5.5718678960525498e+07  1.2011452001028573e+06 -1.7704208302032207e-08 -1.2506596655074800e-08 -1.7704208302032207e-08 9.8706143029338564e+03 -1.8216422787249354e+06 -1.2506596655074800e-08 -1.8216422787249354e+06 5.9503762419638462e+07  9.8288268839665328e+05 -1.7855781297168653e-08 -1.2136615646111060e-08 -1.7855781297168653e-08 -1.7509512582956432e+05 -5.0163418543146068e+05 -1.2136615646111060e-08 -5.0163418543146068e+05 5.3647410710300229e+07  1.1773985356154568e+06 -1.7793764129812773e-08 -1.2424917070129792e-08 -1.7793764129812773e-08 4.0325674298026759e+04 -1.7888524138994841e+06 -1.2424917070129792e-08 -1.7888524138994841e+06 5.7498051198270418e+07  9.2398137593189243e+05 -1.7963290050155296e-08 -1.2069149974883495e-08 -1.7963290050155296e-08 -2.1153025894548252e+05 -4.7025527818626043e+05 -1.2069149974883495e-08 -4.7025527818626043e+05 5.1702237521578506e+07  1.1369396509417042e+06 -1.7888756634206189e-08 -1.2358090073818180e-08 -1.7888756634206189e-08 3.5407102359496239e+04 -1.8096528613877841e+06 -1.2358090073818180e-08 -1.8096528613877841e+06 5.5617839415217303e+07  8.5847723070789350e+05 -1.8069841296331639e-08 -1.1998420797761521e-08 -1.8069841296331639e-08 -2.5576246630650794e+05 -5.0090491322717612e+05 -1.1998420797761521e-08 -5.0090491322717612e+05 4.9639467243156575e+07  1.1077448532319113e+06 -1.7989914467149523e-08 -1.2284248475295519e-08 -1.7989914467149523e-08 5.7543401967044592e+04 -1.8462967021125813e+06 -1.2284248475295519e-08 -1.8462967021125813e+06 5.3566106304388687e+07  8.0382755146908388e+05 -1.8163592387154023e-08 -1.1919873304308361e-08 -1.8163592387154023e-08 -2.8166735679667094e+05 -4.7605861435456859e+05 -1.1919873304308361e-08 -4.7605861435456859e+05 4.7620938875639498e+07  1.0744537465881996e+06 -1.8082992183189110e-08 -1.2206241717235136e-08 -1.8082992183189110e-08 7.1034028454024214e+04 -1.8503890200566156e+06 -1.2206241717235136e-08 -1.8503890200566156e+06 5.1544465636599436e+07  7.8308571866610821e+05 -1.8243965463030372e-08 -1.1833730194958870e-08 -1.8243965463030372e-08 -2.4514993391153368e+05 -4.5933361179048399e+05 -1.1833730194958870e-08 -4.5933361179048399e+05 4.5600719773358271e+07  1.0340382318507110e+06 -1.8175472759772507e-08 -1.2130827958898144e-08 -1.8175472759772507e-08 6.8474583427081263e+04 -1.8197445060428847e+06 -1.2130827958898144e-08 -1.8197445060428847e+06 4.9602579715895921e+07  7.2740732612516661e+05 -1.8338495340960173e-08 -1.1768199980812792e-08 -1.8338495340960173e-08 -2.7883475981999701e+05 -4.7386470811279677e+05 -1.1768199980812792e-08 -4.7386470811279677e+05 4.3741507360926926e+07  9.9056600277164637e+05 -1.8265988012258806e-08 -1.2055152513193556e-08 -1.8265988012258806e-08 6.0426131484424433e+04 -1.8008274790143555e+06 -1.2055152513193556e-08 -1.8008274790143555e+06 4.7657106283268094e+07  7.0330290979345841e+05 -1.8440392231291942e-08 -1.1702902989980955e-08 -1.8440392231291942e-08 -2.5354655459644704e+05 -4.8056527042141987e+05 -1.1702902989980955e-08 -4.8056527042141987e+05 4.1857796502472743e+07  9.4571028797567321e+05 -1.8365332583722415e-08 -1.1986731808075232e-08 -1.8365332583722415e-08 4.8143254036439277e+04 -1.7818740986365252e+06 -1.1986731808075232e-08 -1.7818740986365252e+06 4.5757361823943503e+07  6.7126499534374825e+05 -1.8533471955283125e-08 -1.1628327709128979e-08 -1.8533471955283125e-08 -2.4104258219930244e+05 -4.5462985733215319e+05 -1.1628327709128979e-08 -4.5462985733215319e+05 3.9925213094269082e+07  9.1801355911706469e+05 -1.8465876629633168e-08 -1.1918863789593537e-08 -1.8465876629633168e-08 6.7838708993081615e+04 -1.7834233015039787e+06 -1.1918863789593537e-08 -1.7834233015039787e+06 4.3846218307135284e+07  6.3810988452367473e+05 -1.8627470852273024e-08 -1.1558411584378437e-08 -1.8627470852273024e-08 -2.3225681945817609e+05 -4.4862352157087740e+05 -1.1558411584378437e-08 -4.4862352157087740e+05 3.8037642070263840e+07  8.6963456211302732e+05 -1.8559969968819767e-08 -1.1849269244275827e-08 -1.8559969968819767e-08 4.8949712243550086e+04 -1.7799133397040404e+06 -1.1849269244275827e-08 -1.7799133397040404e+06 4.1949895570077881e+07  6.1000661031096266e+05 -1.8729144099679583e-08 -1.1488627385086729e-08 -1.8729144099679583e-08 -2.1173971814312835e+05 -4.5234086334530596e+05 -1.1488627385086729e-08 -4.5234086334530596e+05 3.6084036458068341e+07  8.1592805859824538e+05 -1.8660891127700413e-08 -1.1780130494293204e-08 -1.8660891127700413e-08 2.1278942774327723e+04 -1.7554365464335752e+06 -1.1780130494293204e-08 -1.7554365464335752e+06 4.0026081513352215e+07  5.6236590542591200e+05 -1.8834451862869479e-08 -1.1416135256484689e-08 -1.8834451862869479e-08 -2.2353384949666489e+05 -4.6709215939658426e+05 -1.1416135256484689e-08 -4.6709215939658426e+05 3.4032482304883599e+07  7.8603529151645466e+05 -1.8764376858523590e-08 -1.1710515952889724e-08 -1.8764376858523590e-08 3.8940344742758563e+04 -1.7581455119913083e+06 -1.1710515952889724e-08 -1.7581455119913083e+06 3.8060696323092498e+07  5.1674108247766725e+05 -1.8939941861908411e-08 -1.1352332450946595e-08 -1.8939941861908411e-08 -2.3606538350886153e+05 -4.9958701227941946e+05 -1.1352332450946595e-08 -4.9958701227941946e+05 3.2101193885611355e+07  7.5530200692782982e+05 -1.8865194859777550e-08 -1.1640982617749889e-08 -1.8865194859777550e-08 5.4428128238995145e+04 -1.7653368636599898e+06 -1.1640982617749889e-08 -1.7653368636599898e+06 3.6112298566476554e+07  4.4652774997435906e+05 -1.9057448914682693e-08 -1.1293736226665845e-08 -1.9057448914682693e-08 -2.9717675846022484e+05 -4.2344239556490973e+05 -1.1293736226665845e-08 -4.2344239556490973e+05 3.0260796809622269e+07  7.1732129055947182e+05 -1.8977021646000952e-08 -1.1582354841629884e-08 -1.8977021646000952e-08 5.3823734963788920e+04 -1.7801196459520976e+06 -1.1582354841629884e-08 -1.7801196459520976e+06 3.4238672975478731e+07  4.4304698590891022e+05 -1.9151966621047959e-08 -1.1210214181130423e-08 -1.9151966621047959e-08 -2.2589056148076910e+05 -4.2812193013322231e+05 -1.1210214181130423e-08 -4.2812193013322231e+05 2.8158755815730385e+07  6.8847780605028302e+05 -1.9080745574891947e-08 -1.1516485251286000e-08 -1.9080745574891947e-08 7.2410270196286481e+04 -1.8118681599757385e+06 -1.1516485251286000e-08 -1.8118681599757385e+06 3.2300469826098338e+07  4.1096532158438128e+05 -1.9253275601486489e-08 -1.1148283520523934e-08 -1.9253275601486489e-08 -2.1725727810143388e+05 -4.3454020913188136e+05 -1.1148283520523934e-08 -4.3454020913188136e+05 2.6328726869031917e+07  6.4351173076778743e+05 -1.9180078170197578e-08 -1.1440018834294688e-08 -1.9180078170197578e-08 6.3388806090320519e+04 -1.7604126912450697e+06 -1.1440018834294688e-08 -1.7604126912450697e+06 3.0306987668452561e+07  3.4602836972108495e+05 -1.9361775749207732e-08 -1.1076856922793653e-08 -1.9361775749207732e-08 -2.6193526757453909e+05 -4.0458425594745477e+05 -1.1076856922793653e-08 -4.0458425594745477e+05 2.4306242797261819e+07  6.0045213756030472e+05 -1.9286514097094351e-08 -1.1376679304042682e-08 -1.9286514097094351e-08 5.4104036911192656e+04 -1.7582360437016292e+06 -1.1376679304042682e-08 -1.7582360437016292e+06 2.8415499400030881e+07  2.9109110920084716e+05 -1.9468269760545724e-08 -1.1013954708813134e-08 -1.9468269760545724e-08 -2.9236429381957027e+05 -4.1821921109792578e+05 -1.1013954708813134e-08 -4.1821921109792578e+05 2.2395816159397576e+07  5.5549014279838407e+05 -1.9392750926372935e-08 -1.1311103082459671e-08 -1.9392750926372935e-08 4.2107115514921032e+04 -1.7429239410931265e+06 -1.1311103082459671e-08 -1.7429239410931265e+06 2.6502729003634486e+07  2.6455835514210223e+05 -1.9584116021317992e-08 -1.0968438226241566e-08 -1.9584116021317992e-08 -2.7910844943994330e+05 -4.2597031203187659e+05 -1.0968438226241566e-08 -4.2597031203187659e+05 2.0716834176827073e+07  5.0979413941204135e+05 -1.9507392449357573e-08 -1.1251341821536814e-08 -1.9507392449357573e-08 2.7507934396017001e+04 -1.7207420934420933e+06 -1.1251341821536814e-08 -1.7207420934420933e+06 2.4623844087027483e+07  2.6095141001245563e+05 -1.9679919774320256e-08 -1.0891930758176132e-08 -1.9679919774320256e-08 -2.1183620448197244e+05 -4.3087873250833142e+05 -1.0891930758176132e-08 -4.3087873250833142e+05 1.8717122093185827e+07  4.6664710910359689e+05 -1.9619019189550831e-08 -1.1192174061478728e-08 -1.9619019189550831e-08 1.7441594647526534e+04 -1.7268106032012335e+06 -1.1192174061478728e-08 -1.7268106032012335e+06 2.2749152230913550e+07  2.3592257871672852e+05 -1.9791332989749355e-08 -1.0831695237628464e-08 -1.9791332989749355e-08 -1.8833211028701844e+05 -4.4029248185461492e+05 -1.0831695237628464e-08 -4.4029248185461492e+05 1.6835684668182667e+07  4.1796604067180923e+05 -1.9727280411038817e-08 -1.1126678492227918e-08 -1.9727280411038817e-08 -7.7389133775642824e+02 -1.7110276116562097e+06 -1.1126678492227918e-08 -1.7110276116562097e+06 2.0819574374567255e+07  1.8817267882125109e+05 -1.9903312746042506e-08 -1.0771487478759559e-08 -1.9903312746042506e-08 -2.0551548341712751e+05 -4.5890437401798653e+05 -1.0771487478759559e-08 -4.5890437401798653e+05 1.4924516706035167e+07  3.8379320285304124e+05 -1.9838787174966257e-08 -1.1062045371031377e-08 -1.9838787174966257e-08 7.8267028756813615e+03 -1.6967719473302348e+06 -1.1062045371031377e-08 -1.6967719473302348e+06 1.8886369900050398e+07  1.3104272947248066e+05 -2.0012480667473518e-08 -1.0712112397742797e-08 -2.0012480667473518e-08 -2.4342331829444156e+05 -4.1864312889544811e+05 -1.0712112397742797e-08 -4.1864312889544811e+05 1.3107337040466862e+07  3.6175533766044327e+05 -1.9945923199555262e-08 -1.1003522269962912e-08 -1.9945923199555262e-08 3.4041895237796212e+04 -1.6953450722716590e+06 -1.1003522269962912e-08 -1.6953450722716590e+06 1.7080411773718942e+07  8.7548913595460166e+04 -2.0122132218329028e-08 -1.0652520878781607e-08 -2.0122132218329028e-08 -2.5473455921615238e+05 -4.1761222401589056e+05 -1.0652520878781607e-08 -4.1761222401589056e+05 1.1249072627230685e+07  3.2146982272288779e+05 -2.0055013144679296e-08 -1.0948410549395911e-08 -2.0055013144679296e-08 2.6341401821024177e+04 -1.7095985434273533e+06 -1.0948410549395911e-08 -1.7095985434273533e+06 1.5284099231382012e+07  5.1562234933703097e+04 -2.0244819219512055e-08 -1.0604247867495067e-08 -2.0244819219512055e-08 -2.5520026964986496e+05 -4.1991777942309913e+05 -1.0604247867495067e-08 -4.1991777942309913e+05 9.4709210038740151e+06  2.8558142032548611e+05 -2.0173314561737248e-08 -1.0894513979160332e-08 -2.0173314561737248e-08 2.6895415307164167e+04 -1.6819595379279812e+06 -1.0894513979160332e-08 -1.6819595379279812e+06 1.3483246713102141e+07  4.6569362924748100e+04 -2.0349620243028657e-08 -1.0538973592911010e-08 -2.0349620243028657e-08 -1.9347561924309601e+05 -4.4961288235519337e+05 -1.0538973592911010e-08 -4.4961288235519337e+05 7.5523476093055867e+06  2.5710817416213453e+05 -2.0286181249011684e-08 -1.0836046207854624e-08 -2.0286181249011684e-08 4.2944839148181425e+04 -1.6770299186928470e+06 -1.0836046207854624e-08 -1.6770299186928470e+06 1.1632115318696432e+07  -2.2859398806046443e+04 -2.0470579858941301e-08 -1.0488900043003428e-08 -2.0470579858941301e-08 -2.5495272947515818e+05 -4.2928531625618070e+05 -1.0488900043003428e-08 -4.2928531625618070e+05 5.7608879007284297e+06  2.2212245392215677e+05 -2.0398034661394824e-08 -1.0778323423788723e-08 -2.0398034661394824e-08 4.6301069409909840e+04 -1.6686366216742457e+06 -1.0778323423788723e-08 -1.6686366216742457e+06 9.8003604194635991e+06  -6.4206211212301459e+04 -2.0589075109893638e-08 -1.0426256434858065e-08 -2.0589075109893638e-08 -2.5847775001251380e+05 -4.1549130407770892e+05 -1.0426256434858065e-08 -4.1549130407770892e+05 3.7987853196937088e+06  1.8227246896981259e+05 -2.0515540947597009e-08 -1.0725585492797062e-08 -2.0515540947597009e-08 3.9789101919114015e+04 -1.6666515813604125e+06 -1.0725585492797062e-08 -1.6666515813604125e+06 7.9935618716931008e+06  -9.7999367330768451e+04 -2.0701812043800612e-08 -1.0368829652513821e-08 -2.0701812043800612e-08 -2.5379787617013836e+05 -3.8437923436686385e+05 -1.0368829652513821e-08 -3.8437923436686385e+05 1.9905596427679842e+06  1.5318572827642004e+05 -2.0633397799084170e-08 -1.0672822279427191e-08 -2.0633397799084170e-08 5.1738628024141392e+04 -1.6356482967110800e+06 -1.067282