<?xml version="1.0"?>
<VTKFile type="UnstructuredGrid"  version="0.1"  >
<UnstructuredGrid>
<Piece  NumberOfPoints="10324" NumberOfCells="20301">
<Points>
<DataArray  type="Float64"  NumberOfComponents="3"  format="ascii">4.67879069290115e-23 9.739280004218834e-07 1.168322723194976e-38  4.667657718197442e-23 9.729252312073407e-07 1.16585070622525e-38  4.670737745518599e-23 9.733937811299548e-07 1.911257246971979e-10  4.674687491597103e-23 9.738000778573666e-07 2.416609527618039e-10  4.670034842591251e-23 9.735451776551778e-07 4.058341171538256e-10  4.675480616557918e-23 9.739929520813918e-07 3.630968312272253e-10  4.678589875629298e-23 9.74112116763869e-07 2.022043537991005e-10  4.672402993672952e-23 9.738115970557859e-07 4.589494311798301e-10  4.674185411394599e-23 9.74042360890422e-07 5.291673500753104e-10  4.677293949513178e-23 9.741930467742541e-07 3.998610116573792e-10  4.666058633120551e-23 9.730204290680063e-07 2.392306397940616e-10  4.663330289945338e-23 9.727362859040542e-07 2.008347819865109e-10  4.662904069496083e-23 9.728434178967291e-07 3.46357299790265e-10  4.663353530478787e-23 9.729937358631093e-07 4.561914198860761e-10  4.666592183682011e-23 9.732405032481361e-07 4.112468577283547e-10  4.660644200100233e-23 9.727912637590917e-07 4.977541015339419e-10  4.659988625651504e-23 9.726338866787814e-07 3.994259180839856e-10  4.6710231995311e-23 9.738824288885419e-07 6.540620715976175e-10  4.6688115814574e-23 9.736427996043057e-07 6.136376340134468e-10  4.659832758408266e-23 9.728699920582621e-07 6.495705707359791e-10  4.676128748376971e-23 9.742723608929223e-07 5.841271183821895e-10  4.657184032588357e-23 9.725935394332169e-07 6.116939580016258e-10  4.665918875055782e-23 9.733764965297615e-07 6.078863889175712e-10  4.656850384073798e-23 9.724032208115514e-07 4.514277228530424e-10  4.663010166862998e-23 9.731241178148823e-07 6.175008167014241e-10  4.679213977527093e-23 9.744134846623609e-07 4.473581508040508e-10  4.672769559093405e-23 9.741081943871802e-07 7.225294847548626e-10  4.659686140129638e-23 9.724911912674044e-07 2.839759803782072e-10  4.680144144243893e-23 9.743343920375136e-07 2.844835563732038e-10  4.653952915692726e-23 9.723151072218352e-07 6.24294883563123e-10  4.656037438840074e-23 9.727104350976924e-07 8.318656060274606e-10  4.657206384196031e-23 9.722460170335494e-07 2.621583044944777e-10  4.678457960945398e-23 9.745207063491994e-07 6.226757575546207e-10  4.667914686951895e-23 9.737362327747732e-07 7.878558796966456e-10  4.801253414641938e-23 9.849584617818553e-07 1.195514909861953e-38  4.79012043993823e-23 9.839556925673124e-07 1.193042892892228e-38  4.793106256396419e-23 9.844132423192652e-07 1.88611314182825e-10  4.778987465234522e-23 9.829529233527695e-07 1.190570875922502e-38  4.781956556085074e-23 9.834051022234992e-07 1.847469417662401e-10  4.767854490530815e-23 9.819501541382268e-07 1.188098858952777e-38  4.771022559457956e-23 9.82413752273933e-07 1.782438549111524e-10  4.756721515827106e-23 9.809473849236837e-07 1.185626841983052e-38  4.760042599880113e-23 9.814227450238241e-07 1.76223442068675e-10  4.73445556641969e-23 9.789418464945978e-07 1.180682808043602e-38  4.723322591715983e-23 9.779390772800551e-07 1.178210791073877e-38  4.727363635475824e-23 9.784820514161374e-07 1.789892726620209e-10  4.689923667604858e-23 9.749307696364264e-07 1.170794740164701e-38  4.682959602680809e-23 9.744410297385655e-07 1.375273060777468e-10  4.656524743493734e-23 9.719224619927976e-07 1.163378689255525e-38  4.660961387838746e-23 9.724568596641082e-07 1.347802749310494e-10  4.645391768790026e-23 9.709196927782549e-07 1.1609066722858e-38  4.649409502264051e-23 9.714574682640007e-07 1.758902262160427e-10  4.634258794086318e-23 9.69916923563712e-07 1.158434655316075e-38  4.62312581938261e-23 9.68914154349169e-07 1.15596263834635e-38  4.626688361517531e-23 9.694157521247992e-07 1.80712507003827e-10  4.682076259284314e-23 9.745268069056942e-07 3.028689730323444e-10  4.653309804984768e-23 9.724513887183041e-07 8.185026429262856e-10  4.659108406019282e-23 9.729826894034893e-07 8.275117789453805e-10  4.674672104296379e-23 9.743418248094937e-07 7.847938697250661e-10  4.682086432924114e-23 9.746585877726116e-07 4.33733479941494e-10  4.795976049556506e-23 9.8476070557375e-07 2.775865805396577e-10  4.784949432868034e-23 9.837540032018343e-07 2.640735448112492e-10  4.773418282421504e-23 9.827368782324352e-07 2.855822724951173e-10  4.728928938124084e-23 9.78746632227933e-07 3.025801559890892e-10  4.654002916541793e-23 9.719844969236952e-07 2.891809093185899e-10  4.651025124453443e-23 9.717208405507253e-07 2.937402031383124e-10  4.804234015404323e-23 9.853662424567753e-07 1.393120252636566e-10  4.799519812486314e-23 9.850627126879307e-07 2.603999065168966e-10  4.788259093371826e-23 9.840700485389315e-07 2.820111656763976e-10  4.777182982014318e-23 9.830692755149522e-07 2.788855613448196e-10  4.730431719581237e-23 9.789800537773912e-07 4.006431852383169e-10  4.732926700623641e-23 9.790306382668904e-07 2.264997608801625e-10  4.792051691591311e-23 9.845100422881505e-07 3.80398036334572e-10  4.781141288255488e-23 9.835112536451914e-07 3.643311613290372e-10  4.768623956296641e-23 9.824117418899229e-07 3.922804369712787e-10  4.725068674194432e-23 9.784714278986541e-07 3.750774906129939e-10  4.647520585677278e-23 9.714756368749665e-07 3.641973179082295e-10  4.795614908354365e-23 9.849088242616346e-07 4.582339760921559e-10  4.78450856242071e-23 9.838968636335868e-07 4.466440562093476e-10  4.773366368387766e-23 9.828988276254466e-07 4.522076659664128e-10  4.727500863877404e-23 9.788502015524024e-07 5.347789733627033e-10  4.650736446749361e-23 9.718905049110335e-07 4.894063394572042e-10  4.653936056484246e-23 9.721472219821125e-07 4.579281863409818e-10  4.762261266724777e-23 9.81740437917683e-07 2.940765924298387e-10  4.685385173622832e-23 9.747529999058599e-07 2.310214655589215e-10  4.629162454654621e-23 9.697220476028918e-07 2.641614864907428e-10  4.778704349089827e-23 9.833049840012424e-07 3.775614837479418e-10  4.766386122594727e-23 9.820977860008179e-07 2.798906883873865e-10  4.755693756763843e-23 9.810946754332009e-07 2.39862816203843e-10  4.723107477833803e-23 9.782165109763933e-07 2.968094323306468e-10  4.641958084218869e-23 9.709175874308762e-07 3.071734637248063e-10  4.645164006006395e-23 9.712085002147121e-07 3.093224842071153e-10  4.622480508511325e-23 9.691457377488074e-07 2.897078356274837e-10  4.718467278792356e-23 9.777215945677037e-07 2.198449971208075e-10  4.719734131580691e-23 9.779258998684074e-07 3.100423429149104e-10  4.618454552008367e-23 9.686890054545145e-07 1.956014654651706e-10  4.619551062460912e-23 9.688751609601977e-07 2.829920898385584e-10  4.684885896302455e-23 9.748982798194669e-07 4.212722822461564e-10  4.688746938662484e-23 9.750506341369636e-07 2.258548210649863e-10  4.630399519347941e-23 9.699362479868985e-07 3.669369886600576e-10  4.633494060839288e-23 9.700521638934885e-07 2.041213771038346e-10  4.752509456465107e-23 9.80794108668215e-07 2.261123239945368e-10  4.752318449421618e-23 9.809207347021325e-07 3.699427429096925e-10  4.753528516310427e-23 9.811168519277938e-07 4.570668327803374e-10  4.757377016096891e-23 9.813864699736233e-07 3.800428345246075e-10  4.624238107790306e-23 9.694046897264431e-07 3.903493441055079e-10  4.732916773607626e-23 9.791868996617306e-07 3.836553018329359e-10  4.719672496755204e-23 9.780781568637173e-07 4.678509097668012e-10  4.641631529047964e-23 9.710915498166523e-07 5.105493244209002e-10  4.619117074789324e-23 9.689986169816365e-07 4.45538245598263e-10  4.627811656350968e-23 9.697931918416543e-07 4.569748199929163e-10  4.7161116849854e-23 9.776995195215049e-07 4.099429787468251e-10  4.765076356033801e-23 9.821853923082006e-07 4.854702796846527e-10  4.789543166793594e-23 9.842952701073439e-07 3.915736824129747e-10  4.774941267317945e-23 9.831376579523275e-07 5.491837081451957e-10  4.625542446102504e-23 9.696083082368798e-07 4.764835038065635e-10  4.721349839539179e-23 9.783222072722554e-07 5.608197115672652e-10  4.620335997356913e-23 9.69192556756756e-07 5.296872362942087e-10  4.724834361565283e-23 9.785997737955968e-07 5.245283929421724e-10  4.762177164766498e-23 9.81929704361746e-07 4.909182674519977e-10  4.797981561560813e-23 9.851433382944178e-07 4.795788389017944e-10  4.644371727460851e-23 9.713590379887137e-07 5.312223654584047e-10  4.792365010698237e-23 9.846731299328919e-07 5.152644048119742e-10  4.781528236204756e-23 9.836773409556255e-07 4.955652989604279e-10  4.769734934657411e-23 9.8264425557762e-07 5.247260900366824e-10  4.64745444524318e-23 9.71625668606399e-07 5.201864500279303e-10  4.729863164889078e-23 9.790870227122618e-07 5.588229741038719e-10  4.75843004977711e-23 9.816259922740947e-07 5.247162931991794e-10  4.632023385495943e-23 9.701110757130021e-07 3.954998551829277e-10  4.687336809382322e-23 9.751191392843884e-07 4.213731225034543e-10  4.749405748805021e-23 9.807009730546824e-07 4.125338436904082e-10  4.801325126474112e-23 9.853083688017262e-07 3.434477922577406e-10  4.616236004278854e-23 9.687939869971267e-07 5.004120226361516e-10  4.638618249912346e-23 9.70831675829267e-07 5.220873928823038e-10  4.716688453410406e-23 9.778704884018171e-07 5.289611777803126e-10  4.638751351296093e-23 9.707009886421779e-07 3.79411498948273e-10  4.616553249791374e-23 9.686861161156608e-07 3.639662057309868e-10  4.640622569866853e-23 9.70696054648312e-07 2.05933119922366e-10  4.749953894188972e-23 9.808732987077815e-07 5.354869498514384e-10  4.785773509922396e-23 9.841232728131412e-07 5.591168938191256e-10  4.628967758590694e-23 9.699954495349296e-07 5.551000809475832e-10  4.77823637181631e-23 9.834283195366757e-07 5.430486646738566e-10  4.681470884491478e-23 9.747784747396142e-07 6.090641207809918e-10  4.754402976967807e-23 9.813260699615726e-07 5.87520452744521e-10  4.621773261908184e-23 9.694451428651095e-07 6.528160626969753e-10  4.788862947589096e-23 9.844104068795902e-07 5.679791537775267e-10  4.625132406258893e-23 9.697259334817067e-07
[...]
<PointData  Tensors="f_71"> 
<DataArray  type="Float64"  Name="f_71"  NumberOfComponents="9" format="ascii">-6.3196920780422401e+08 1.7657317697556062e-07 9.2352074800314881e-08 1.7657317697556062e-07 6.5145230580529332e+08 -9.8261838075389445e+05 9.2352074800314881e-08 -9.8261838075389445e+05 -3.9263363685275624e+06  -6.3375573875647426e+08 1.7088336267288493e-07 8.9488740308198164e-08 1.7088336267288493e-07 6.4812786824376535e+08 5.4492299468310096e+05 8.9488740308198164e-08 5.4492299468310096e+05 -2.7950167281826031e+06  -6.3583267243254638e+08 1.7337769262693260e-07 9.1010686302051598e-08 1.7337769262693260e-07 6.4451705247481573e+08 -4.3266264033309097e+05 9.1010686302051598e-08 -4.3266264033309097e+05 -9.9591120155518390e+06  -6.4054658086232996e+08 1.7459962476664036e-07 8.8957253373830300e-08 1.7459962476664036e-07 6.3515410861211932e+08 -1.0348261072299436e+07 8.8957253373830300e-08 -1.0348261072299436e+07 1.5702206880631546e+07  -6.4722887232742882e+08 1.7272238884453659e-07 8.9533627147169178e-08 1.7272238884453659e-07 6.2340972055451584e+08 -3.4009254231881201e+06 8.9533627147169178e-08 -3.4009254231881201e+06 -5.3542578769158367e+06  -6.5176915058011365e+08 1.7440044298472542e-07 9.0311849191090596e-08 1.7440044298472542e-07 6.1502232904673123e+08 1.6401199283309656e+06 9.0311849191090596e-08 1.6401199283309656e+06 -3.6371052963912776e+06  -6.3787532420751107e+08 1.7584865014550795e-07 9.1416004972185841e-08 1.7584865014550795e-07 6.4009518177500117e+08 1.4770321257499276e+07 9.1416004972185841e-08 1.4770321257499276e+07 1.5054569230754955e+07  -6.5094809343427968e+08 1.7385061696510960e-07 8.9184816475772777e-08 1.7385061696510960e-07 6.1630444174081469e+08 -3.3444951073659523e+06 8.9184816475772777e-08 -3.3444951073659523e+06 4.9188550428913776e+06  -6.5525840715518355e+08 1.7429008066068883e-07 8.9755020355100503e-08 1.7429008066068883e-07 6.0851640143021321e+08 2.2197193203632848e+05 8.9755020355100503e-08 2.2197193203632848e+05 -5.1692040070545761e+05  -6.4700049570343387e+08 1.7562393869442183e-07 9.0955118380918420e-08 1.7562393869442183e-07 6.2363676977903891e+08 4.2104684594458630e+06 9.0955118380918420e-08 4.2104684594458630e+06 2.2434322858626307e+06  -6.4090072492544961e+08 1.6949661808792413e-07 8.7645762174998674e-08 1.6949661808792413e-07 6.3448446244164228e+08 8.5543545618339628e+06 8.7645762174998674e-08 8.5543545618339628e+06 1.6229559488144631e+07  -6.4069299674665713e+08 1.6900427575590360e-07 8.6222787543203948e-08 1.6900427575590360e-07 6.3497995252719605e+08 -1.3760558435219124e+07 8.6222787543203948e-08 -1.3760558435219124e+07 1.2184849727968769e+07  -6.5044314873658156e+08 1.6866580989986706e-07 8.7039544384327307e-08 1.6866580989986706e-07 6.1742778707927883e+08 -5.1250383372231536e+06 8.7039544384327307e-08 -5.1250383372231536e+06 -2.2123192108414830e+06  -6.5136558261934566e+08 1.6849459331076766e-07 8.6821908824561380e-08 1.6849459331076766e-07 6.1554087468396378e+08 8.1259515296884615e+05 8.6821908824561380e-08 8.1259515296884615e+05 4.7766797915459601e+06  -6.4789439287127495e+08 1.7071623772381810e-07 8.8848336821808641e-08 1.7071623772381810e-07 6.2216950371157420e+08 2.7521200141101843e+06 8.8848336821808641e-08 2.7521200141101843e+06 -4.3170570675307903e+06  -6.5344458401706052e+08 1.6777677932195630e-07 8.6523737169718271e-08 1.6777677932195630e-07 6.1185491955584478e+08 -2.1032679137105858e+06 8.6523737169718271e-08 -2.1032679137105858e+06 -6.1415172777745512e+05  -6.4718752088679802e+08 1.6809660956646129e-07 8.6875800977029905e-08 1.6809660956646129e-07 6.2335887922643685e+08 -4.2723055163664892e+06 8.6875800977029905e-08 -4.2723055163664892e+06 -3.3390066820442746e+05  -6.6038876993281317e+08 1.7268479567981500e-07 8.8547186586884372e-08 1.7268479567981500e-07 5.9904356740007460e+08 -3.5564763401687704e+05 8.8547186586884372e-08 -3.5564763401687704e+05 8.3798915032605745e+05  -6.5808968331704473e+08 1.7172531979484092e-07 8.8259478975363332e-08 1.7172531979484092e-07 6.0332029138741052e+08 -9.4394967225134140e+05 8.8259478975363332e-08 -9.4394967225134140e+05 -4.8482555733488384e+05  -6.5862376336034453e+08 1.6753226201304337e-07 8.6035419101756318e-08 1.6753226201304337e-07 6.0228920588994920e+08 -1.7913090245800081e+06 8.6035419101756318e-08 -1.7913090245800081e+06 7.7423245961121947e+05  -6.5708443161917830e+08 1.7534594714749409e-07 9.0246573267993734e-08 1.7534594714749409e-07 6.0515960251034141e+08 1.4477402856900934e+06 9.0246573267993734e-08 1.4477402856900934e+06 -4.9029037240255560e+05  -6.5686456641023540e+08 1.6633466930510889e-07 8.5636587426674859e-08 1.6633466930510889e-07 6.0556468015857160e+08 -1.6508829427893595e+06 8.5636587426674859e-08 -1.6508829427893595e+06 -3.7692548734455276e+05  -6.5578111598101318e+08 1.7053507621398852e-07 8.7741112064104328e-08 1.7053507621398852e-07 6.0754678538094842e+08 -1.0186829463130613e+06 8.7741112064104328e-08 -1.0186829463130613e+06 4.4319049286758259e+05  -6.4936493643352461e+08 1.6629243361323536e-07 8.6181161512499850e-08 1.6629243361323536e-07 6.1939146445851374e+08 -1.7928783227036539e+06 8.6181161512499850e-08 -1.7928783227036539e+06 -2.5622139372763042e+06  -6.5825933552349520e+08 1.6868077572416418e-07 8.6814072743843697e-08 1.6868077572416418e-07 6.0298456121793759e+08 7.3346208079631933e+03 8.6814072743843697e-08 7.3346208079631933e+03 -3.7539799333149765e+05  -6.4933934614145505e+08 1.7752187439144779e-07 9.1927515547989383e-08 1.7752187439144779e-07 6.1951330496871519e+08 -5.9164012742479259e+04 9.1927515547989383e-08 -5.9164012742479259e+04 -4.5382058467998067e+06  -6.6394597925057340e+08 1.7359715260635379e-07 8.8939321095075067e-08 1.7359715260635379e-07 5.9254699388551104e+08 1.1000932395108738e+05 8.8939321095075067e-08 1.1000932395108738e+05 -9.0874860092435870e+05  -6.4185145139447153e+08 1.6804631071661442e-07 8.7760566258203503e-08 1.6804631071661442e-07 6.3342532582344139e+08 -3.9841989991405318e+06 8.7760566258203503e-08 -3.9841989991405318e+06 -9.0164379125727713e+06  -6.3960521020338821e+08 1.7852537755322028e-07 9.3398844052670843e-08 1.7852537755322028e-07 6.3755015875049531e+08 2.2650096123461020e+06 9.3398844052670843e-08 2.2650096123461020e+06 -8.5634758245273586e+06  -6.5634828413987064e+08 1.6478952382499402e-07 8.4916206125204079e-08 1.6478952382499402e-07 6.0648404120442855e+08 -4.0292869378052634e+05 8.4916206125204079e-08 -4.0292869378052634e+05 7.4174957698509109e+05  -6.6638141187406361e+08 1.6554411742825871e-07 8.4803782902347189e-08 1.6554411742825871e-07 5.8803172172349966e+08 3.5848243996162276e+05 8.4803782902347189e-08 3.5848243996162276e+05 1.3746230679518299e+05  -6.4036944954479456e+08 1.6607452333391669e-07 8.7098391017432857e-08 1.6607452333391669e-07 6.3587078349378550e+08 9.8109218509602826e+06 8.7098391017432857e-08 9.8109218509602826e+06 1.1842116134203570e+06  -6.5922803128954709e+08 1.7701805472882729e-07 9.0698225047107385e-08 1.7701805472882729e-07 6.0120393929766083e+08 -2.2307140798266344e+06 9.0698225047107385e-08 -2.2307140798266344e+06 -4.5220494956985081e+05  -6.6696429976720786e+08 1.7121793129413114e-07 8.7651391424979244e-08 1.7121793129413114e-07 5.8701591784629834e+08 -3.8861583643237967e+05 8.7651391424979244e-08 -3.8861583643237967e+05 -2.1242931456518150e+06  -9.1184259625378340e+07 5.3977015306101887e-08 2.2629327053612807e-08 5.3977015306101887e-08 -1.6779494858277002e+08 4.3750488249490206e+05 2.2629327053612807e-08 4.3750488249490206e+05 2.4189509479038245e+06  -9.7108467697582394e+07 5.9284117629440173e-08 2.4733198932752732e-08 5.9284117629440173e-08 -1.7869445930348182e+08 -1.2227367034329977e+06 2.4733198932752732e-08 -1.2227367034329977e+06 4.8420690323260408e+06  -9.1356087150526315e+07 5.7011222033315961e-08 2.3183395323357488e-08 5.7011222033315961e-08 -1.6841385705313289e+08 -6.0317540113454647e+06 2.3183395323357488e-08 -6.0317540113454647e+06 1.0365917937867813e+07  -1.0097117339317295e+08 6.7081824569984433e-08 2.8492557101253713e-08 6.7081824569984433e-08 -1.8663692512088805e+08 6.0005122963125026e+05 2.8492557101253713e-08 6.0005122963125026e+05 5.3865729626561543e+06  -9.8042430422766283e+07 6.3330679795101146e-08 2.5611905814402661e-08 6.3330679795101146e-08 -1.8066555181335104e+08 -8.2357130290089501e+06 2.5611905814402661e-08 -8.2357130290089501e+06 1.4515280993494129e+07  -1.1981426404371046e+08 7.6033576653248473e-08 3.2061288630247131e-08 7.6033576653248473e-08 -2.1295913697563756e+08 -1.7253505853937652e+06 3.2061288630247131e-08 -1.7253505853937652e+06 5.9180331729597319e+06  -9.8634958621452034e+07 7.2510384290722151e-08 2.9579675935444770e-08 7.2510384290722151e-08 -1.8415232045375654e+08 -6.1260620254457612e+06 2.9579675935444770e-08 -6.1260620254457612e+06 2.4899354200161643e+07  -6.5160395948090278e+07 1.0500927826788785e-07 4.7036971047870392e-08 1.0500927826788785e-07 -1.9696193608376026e+08 9.5773807099103241e+05 4.7036971047870392e-08 9.5773807099103241e+05 1.1676776105363788e+07  -1.3916661273847213e+08 8.5597296576388302e-08 3.3061684250601077e-08 8.5597296576388302e-08 -2.3934090566985643e+08 -4.5808162977079093e+07 3.3061684250601077e-08 -4.5808162977079093e+07 6.6544982712259153e+06  -6.8018619164682305e+08 2.4397269786742974e-07 1.2456316802650507e-07 2.4397269786742974e-07 6.1923584061784422e+08 9.1996054212192763e+06 1.2456316802650507e-07 9.1996054212192763e+06 -5.0933297790257810e+06  -6.1873262261786616e+08 2.1376558083587609e-07 1.1182315520673187e-07 2.1376558083587609e-07 6.7031493948320508e+08 2.1760625788315055e+06 1.1182315520673187e-07 2.1760625788315055e+06 -1.0208091135521030e+07  -6.0161981940791786e+08 2.2657340298476210e-07 1.1465454318522044e-07 2.2657340298476210e-07 6.9326652654690742e+08 -5.1239675955706567e+07 1.1465454318522044e-07 -5.1239675955706567e+07 5.5039560549982905e+05  -6.2938310030760288e+08 1.8335428648065416e-07 9.5680562337746706e-08 1.8335428648065416e-07 6.5616072995985937e+08 -6.5329363221392920e+05 9.5680562337746706e-08 -6.5329363221392920e+05 -1.5455758714555888e+06  -6.3156021916116142e+08 1.8046426166707414e-07 9.5068116031126434e-08 1.8046426166707414e-07 6.5255385550428939e+08 -2.3734092100848560e+06 9.5068116031126434e-08 -2.3734092100848560e+06 -1.6962927031167790e+07  -6.3650229370691276e+08 1.6548584382060514e-07 8.6499017352084115e-08 1.6548584382060514e-07 6.4304681018131518e+08 -7.2417872350907605e+05 8.6499017352084115e-08 -7.2417872350907605e+05 -1.1982601674143763e+06  -6.3505405136438346e+08 1.6865723376201609e-07 8.8844560972634054e-08 1.6865723376201609e-07 6.4602931770146966e+08 -2.0462140913011641e+06 8.8844560972634054e-08 -2.0462140913011641e+06 -1.3018705086038314e+07  -6.3846479828851736e+08 1.6080534442883242e-07 8.4218087354309718e-08 1.6080534442883242e-07 6.3944748181176496e+08 5.1919011680704734e+05 8.4218087354309718e-08 5.1919011680704734e+05 -1.8011965606974482e+06  -6.3792923564966464e+08 1.6345064217236747e-07 8.5859056287065692e-08 1.6345064217236747e-07 6.4062336173657835e+08 -2.0937179815957444e+06 8.5859056287065692e-08 -2.0937179815957444e+06 -9.0253830518518854e+06  -6.4003246977271318e+08 1.5637638484336642e-07 8.1847009010766144e-08 1.5637638484336642e-07 6.3657086014442575e+08 -1.3461245239613145e+06 8.1847009010766144e-08 -1.3461245239613145e+06 -1.9343941042560332e+06  -6.4202733451160741e+08 1.5242735752004013e-07 7.9868587015344064e-08 1.5242735752004013e-07 6.3288201097921526e+08 5.0227932441129931e+04 7.9868587015344064e-08 5.0227932441129931e+04 -1.5933582094774081e+06  -6.4190013358205020e+08 1.5450616971579072e-07 8.1287766428345770e-08 1.5450616971579072e-07 6.3330096300780451e+08 -7.1674400251984585e+05 8.1287766428345770e-08 -7.1674400251984585e+05 -8.1833988611276420e+06  -6.4126495845252454e+08 1.7937337092340082e-07 9.3403212673167954e-08 1.7937337092340082e-07 6.3449678650482666e+08 -3.4869846276046615e+06 9.3403212673167954e-08 -3.4869846276046615e+06 -9.4913014383695703e+06  -6.6476563396343577e+08 1.6457109945878090e-07 8.4324037817488964e-08 1.6457109945878090e-07 5.9101637263646853e+08 -1.3084501455741506e+06 8.4324037817488964e-08 -1.3084501455741506e+06 -6.7305476194756615e+04  -6.6629617296086228e+08 1.6704463869097889e-07 8.5528413979893122e-08 1.6704463869097889e-07 5.8821984919139063e+08 -7.8727483346231340e+05 8.5528413979893122e-08 -7.8727483346231340e+05 -7.5738724109920440e+05  -6.6775907478981388e+08 1.7445017499190584e-07 8.9163169287493206e-08 1.7445017499190584e-07 5.8551544059683025e+08 1.5816587919284066e+06 8.9163169287493206e-08 1.5816587919284066e+06 1.7672639358064867e+05  -6.4912982719723165e+08 1.7953967312433103e-07 9.2217742449725555e-08 1.7953967312433103e-07 6.1975215995048153e+08 -4.9730966873403890e+06 9.2217742449725555e-08 -4.9730966873403890e+06 1.1945037493369069e+06  -8.3982215320216507e+07 5.5656512768092656e-08 2.5193229901819180e-08 5.5656512768092656e-08 -1.5410324909478757e+08 1.0719363729610654e+07 2.5193229901819180e-08 1.0719363729610654e+07 -9.2659296244370025e+06  -8.8045742167388320e+07 6.1487422808806624e-08 2.8481791528770200e-08 6.1487422808806624e-08 -1.6150192108114409e+08 1.5985519451304013e+07 2.8481791528770200e-08 1.5985519451304013e+07 -1.2902434909703741e+07  -8.7168216976988345e+07 7.0560406071102482e-08 3.3440524821874039e-08 7.0560406071102482e-08 -1.5927828087338123e+08 2.0971525850705709e+07 3.3440524821874039e-08 2.0971525850705709e+07 -1.4421690918233654e+07  -6.7997387241203737e+08 2.2551313996804793e-07 1.0042801619985529e-07 2.2551313996804793e-07 5.5007797582321250e+08 -6.0243697800912984e+07 1.0042801619985529e-07 -6.0243697800912984e+07 1.3014786596359214e+08  -6.4599226809385014e+08 1.6372425227949417e-07 8.4320130184339752e-08 1.6372425227949417e-07 6.2514585013973248e+08 4.1939885136632952e+06 8.4320130184339752e-08 4.1939885136632952e+06 1.5084350562699409e+07  -6.4505794967030430e+08 1.6369988455111557e-07 8.3910260031268729e-08 1.6369988455111557e-07 6.2707640798752630e+08 -1.0561998402291408e+07 8.3910260031268729e-08 -1.0561998402291408e+07 7.3968688213177556e+06  -8.6818929086851731e+07 5.2543290936580307e-08 2.1100939572159961e-08 5.2543290936580307e-08 -1.5999559420668438e+08 -8.4008646268307362e+06 2.1100939572159961e-08 -8.4008646268307362e+06 8.9128304891271666e+06  -7.9952954390986368e+07 5.5635892651103216e-08 2.4217199997524644e-08 5.5635892651103216e-08 -1.4650232107274064e+08 -1.0757086156826809e+07 2.4217199997524644e-08 -1.0757086156826809e+07 -1.4562234786542827e+07  -8.2996065765731826e+07 6.1506996950663903e-08 2.7186550770275546e-08 6.1506996950663903e-08 -1.5193319813629478e+08 -1.2069839735869709e+07 2.7186550770275546e-08 -1.2069839735869709e+07 -1.9257953482213207e+07  -8.4679486759736627e+07 6.9603409585709353e-08 3.1408562893234028e-08 6.9603409585709353e-08 -1.5466606057875928e+08 -1.4758830578361209e+07 3.1408562893234028e-08 -1.4758830578361209e+07 -2.6998749136289112e+07  -7.6091813212773192e+08 2.1529772638411704e-07 1.1111573371236214e-07 2.1529772638411704e-07 4.1603683522522748e+08 1.0828802377390534e+08 1.1111573371236214e-07 1.0828802377390534e+08 -3.0513570969139296e+06  -7.2335067353349102e+08 2.2302651664638749e-07 1.0345197723360482e-07 2.2302651664638749e-07 4.7407240783380437e+08 1.0273032915949710e+08 1.0345197723360482e-07 1.0273032915949710e+08 1.9113248400568008e+08  -8.0225853761340722e+07 5.8342752974294759e-08 2.4730283478665917e-08 5.8342752974294759e-08 -1.4774768398156932e+08 -4.2959721907547954e+06 2.4730283478665917e-08 -4.2959721907547954e+06 5.5869443228095351e+06  -8.3905910428081110e+07 6.4729653594203032e-08 2.7778126330701554e-08 6.4729653594203032e-08 -1.5457067143992335e+08 -2.7102646956391255e+06 2.7778126330701554e-08 -2.7102646956391255e+06 6.4678729663952179e+06  -8.0152745811911032e+07 7.5069665989512001e-08 3.2199907551132189e-08 7.5069665989512001e-08 -1.4769985953177524e+08 -3.7765354116546744e+06 3.2199907551132189e-08 -3.7765354116546744e+06 1.8934942107801802e+07  -6.8386239457218337e+08 2.1882197057118340e-07 1.1134883764486980e-07 2.1882197057118340e-07 5.6036513084453237e+08 -6.4970182662320847e+05 1.1134883764486980e-07 -6.4970182662320847e+05 -2.1252901971907727e+07  -6.4660512854775405e+08 1.6257485213472830e-07 8.4683817764853245e-08 1.6257485213472830e-07 6.2460114976045334e+08 -2.9635669067868274e+06 8.4683817764853245e-08 -2.9635669067868274e+06 -6.1379627000119332e+06  -7.0634262458611488e+07 5.7072310093241773e-08 2.4806545044926699e-08 5.7072310093241773e-08 -1.2994794707391344e+08 -3.9930691949005965e+06 2.4806545044926699e-08 -3.9930691949005965e+06 1.1778011802585735e+06  -7.0355378582117051e+07 6.3140383858681088e-08 2.7750979986286667e-08 6.3140383858681088e-08 -1.2952554982933594e+08 -2.3576385350887398e+06 2.7750979986286667e-08 -2.3576385350887398e+06 3.9689999440319100e+06  -6.4774150231631845e+07 7.1851426135799270e-08 3.2458632178494136e-08 7.1851426135799270e-08 -1.1943198199687006e+08 1.7672206268953504e+06 3.2458632178494136e-08 1.7672206268953504e+06 5.7078539091992974e+06  -7.6552428192696440e+08 2.1203400379173788e-07 1.0738821342789820e-07 2.1203400379173788e-07 4.0691909576288688e+08 8.8455996208760723e+07 1.0738821342789820e-07 8.8455996208760723e+07 5.1556501706233416e+06  -6.5378248409873855e+08 1.6323365526876573e-07 8.4372386883580229e-08 1.6323365526876573e-07 6.1123897803112888e+08 -7.3638143406492518e+05 8.4372386883580229e-08 -7.3638143406492518e+05 -6.4332263592256198e+05  -6.5115640091270769e+08 1.6464155500281268e-07 8.5244768065890215e-08 1.6464155500281268e-07 6.1608664197264779e+08 -2.0860016291368593e+05 8.5244768065890215e-08 -2.0860016291368593e+05 -6.1766801861062320e+05  -8.1151120423613057e+07 8.3775209620325305e-08 4.1270576091921600e-08 8.3775209620325305e-08 -1.5276714323043844e+08 3.0240456583062757e+07 4.1270576091921600e-08 3.0240456583062757e+07 -2.2553537982637342e+07  -6.3968924791977596e+08 1.8094658061304565e-07 9.1895335963111190e-08 1.8094658061304565e-07 6.3677197259986722e+08 -1.5218094730470523e+07 9.1895335963111190e-08 -1.5218094730470523e+07 1.4186541853062328e+07  -6.4732114967699397e+08 1.5478736905830701e-07 7.9638817626675527e-08 1.5478736905830701e-07 6.2291940408363140e+08 -7.5205475276633920e+06 7.9638817626675527e-08 -7.5205475276633920e+06 7.0892883240355179e+06  -7.9686083692019224e+07 6.6780168774291538e-08 2.8425397518547316e-08 6.6780168774291538e-08 -1.4692761066355374e+08 -8.5520733013282083e+06 2.8425397518547316e-08 -8.5520733013282083e+06 8.7973747598796356e+06  -8.0881673771784633e+07 8.0754842475429197e-08 3.6856256880230979e-08 8.0754842475429197e-08 -1.4837913275332826e+08 -1.9309327262216397e+07 3.6856256880230979e-08 -1.9309327262216397e+07 -2.8730929356525600e+07  -7.8110184210056588e+07 1.1429601873532323e-07 6.0596691921873973e-08 1.1429601873532323e-07 -1.2298482979514210e+08 -6.3841707999097019e+07 6.0596691921873973e-08 -6.3841707999097019e+07 -1.8741393296313718e+08  -6.5571409193248260e+08 2.1400218099336025e-07 1.1015905282251528e-07 2.1400218099336025e-07 6.1087601652774358e+08 3.5289714592908837e+07 1.1015905282251528e-07 3.5289714592908837e+07 2.0184075338098019e+07  -6.4842794837107563e+08 1.5896326063859837e-07 8.1712225207450392e-08 1.5896326063859837e-07 6.2073604680985343e+08 -4.7076855593669601e+05 8.1712225207450392e-08 -4.7076855593669601e+05 1.2590493132749138e+07  -6.4437412605014193e+08 1.6068059481765585e-07 8.3952925033178853e-08 1.6068059481765585e-07 6.2843358132804394e+08 8.2109544435923733e+06 8.3952925033178853e-08 8.2109544435923733e+06 3.7239212562034056e+06  -6.4736047538436949e+08 1.5192732659019180e-07 7.9336108054759368e-08 1.5192732659019180e-07 6.2290247628167188e+08 7.4111124640990952e+06 7.9336108054759368e-08 7.4111124640990952e+06 5.3402937025781358e+06  -6.4446426204760170e+08 2.0964737145432936e-07 1.0348172368869317e-07 2.0964737145432936e-07 6.2895035010233843e+08 -3.6989433357257225e+07 1.0348172368869317e-07 -3.6989433357257225e+07 2.5863881186961539e+07  -6.6444801543041599e+08 2.0722883875576939e-07 1.02