<?xml version="1.0"?>
<VTKFile type="UnstructuredGrid"  version="0.1"  >
<UnstructuredGrid>
<Piece  NumberOfPoints="10268" NumberOfCells="20038">
<Points>
<DataArray  type="Float64"  NumberOfComponents="3"  format="ascii">4.399996584658672e-23 9.999999999999972e-07 5.118354041799195e-08  4.40123523688283e-23 9.999999999999972e-07 5.107197254408878e-08  4.399501869654966e-23 9.998977161647241e-07 5.112581654884574e-08  4.400667976925973e-23 9.998952087812739e-07 5.101827555997193e-08  4.398770003190948e-23 9.999999999999972e-07 5.129402105481163e-08  4.398294676907132e-23 9.998990622437235e-07 5.123589688403138e-08  4.397586538647746e-23 9.999999999999972e-07 5.140061806432701e-08  4.397097074302434e-23 9.998983116075069e-07 5.134301670069986e-08  4.396405120030225e-23 9.999999999999972e-07 5.150703079323971e-08  4.395820454886629e-23 9.998965810266137e-07 5.145627377431298e-08  4.395220637995988e-23 9.999999999999972e-07 5.16137194502001e-08  4.394622315168714e-23 9.998960631645236e-07 5.156367474396566e-08  4.394040236869503e-23 9.999999999999972e-07 5.172004053166779e-08  4.3934829345483e-23 9.99895126730902e-07 5.166536459309472e-08  4.392802737910274e-23 9.999999999999972e-07 5.18315045287009e-08  4.392284138828567e-23 9.998949804206509e-07 5.177319620197722e-08  4.391595680988776e-23 9.999999999999972e-07 5.194022655073833e-08  4.391018184227892e-23 9.998945955130643e-07 5.188683834774797e-08  4.390406737914057e-23 9.999999999999972e-07 5.204731702250371e-08  4.389854913511445e-23 9.998956349450099e-07 5.199265589099601e-08  4.389206039109145e-23 9.999999999999972e-07 5.215546635631141e-08  4.388593318456127e-23 9.998950869580444e-07 5.210574228445084e-08  4.388005340304234e-23 9.999999999999972e-07 5.22636156901191e-08  4.387383493227716e-23 9.998951321773648e-07 5.221475887272843e-08  4.38683146666146e-23 9.999999999999972e-07 5.236934882812269e-08  4.386231215590716e-23 9.998952402649503e-07 5.231865490304631e-08  4.385639439652475e-23 9.999999999999972e-07 5.247671707599219e-08  4.385060041679764e-23 9.99894981627538e-07 5.242388623341298e-08  4.384295973277542e-23 9.999999999999972e-07 5.259772576930288e-08  4.383841291296222e-23 9.99895420570884e-07 5.253410045222258e-08  4.383118056305356e-23 9.999999999999972e-07 5.270382309804318e-08  4.382566575063462e-23 9.998937309115886e-07 5.264722702394441e-08  4.38195283872793e-23 9.999999999999972e-07 5.280877656699312e-08  4.381445488507661e-23 9.998966177747839e-07 5.275109238703879e-08  4.380754243855785e-23 9.999999999999972e-07 5.291673639538436e-08  4.380261601075234e-23 9.998989794814738e-07 5.28600891937193e-08  4.379553545050873e-23 9.999999999999972e-07 5.302488572919205e-08  4.379011213041468e-23 9.998964489012041e-07 5.297018355510829e-08  4.37838828998391e-23 9.999999999999972e-07 5.312984257489936e-08  4.377815965922585e-23 9.99896748561136e-07 5.307814150462461e-08  4.377223072406485e-23 9.999999999999972e-07 5.32347960438493e-08  4.376610164467137e-23 9.998957691977756e-07 5.318577108097287e-08  4.376023406823188e-23 9.999999999999972e-07 5.334285231332744e-08  4.375483617415713e-23 9.99897577167686e-07 5.32890493885035e-08  4.374857240705421e-23 9.999999999999972e-07 5.344789121919595e-08  4.374317027073759e-23 9.998968777195138e-07 5.339342705691758e-08  4.373658523662465e-23 9.999999999999972e-07 5.355586205175553e-08  4.373135129083259e-23 9.998971318222213e-07 5.350013706661717e-08  4.372491340053663e-23 9.999999999999972e-07 5.366099260506903e-08  4.371915440417266e-23 9.998973283315533e-07 5.361019336438274e-08  4.371282951678745e-23 9.999999999999972e-07 5.376983455376905e-08  4.370756040841007e-23 9.998979087345916e-07 5.371520319741329e-08  4.370007843665426e-23 9.999999999999972e-07 5.388468607324185e-08  4.369505413537689e-23 9.998954320970322e-07 5.382537305299794e-08  4.368814636615144e-23 9.999999999999972e-07 5.399216060978234e-08  4.368253500736285e-23 9.998970671602864e-07 5.39397703967702e-08  4.367641943013667e-23 9.999999999999972e-07 5.409778745911495e-08  4.367044179136349e-23 9.998961212803427e-07 5.404775052296332e-08  4.366419427963032e-23 9.999999999999972e-07 5.420790182564484e-08  4.365854311404894e-23 9.998969670153525e-07 5.415577001541322e-08  4.36517041515112e-23 9.999999999999972e-07 5.432040289833102e-08  4.364599047932945e-23 9.998951629160528e-07 5.426702999820391e-08  4.363962599862986e-23 9.999999999999972e-07 5.442919322796256e-08  4.363383292810976e-23 9.998929640708516e-07 5.437433663928821e-08  4.362725859270394e-23 9.999999999999972e-07 5.454058891740155e-08  4.362155905210076e-23 9.998928903082283e-07 5.448481612350589e-08  4.361545245348412e-23 9.999999999999972e-07 5.46469291657837e-08  4.3609497423983e-23 9.998956906052594e-07 5.459625790833029e-08  4.360302423955106e-23 9.999999999999972e-07 5.475887256505931e-08  4.359749515058286e-23 9.998970602634026e-07 5.470573443449844e-08  4.358959765782629e-23 9.999999999999972e-07 5.487980846196438e-08  4.358457494344072e-23 9.998960758896446e-07 5.482112494088228e-08  4.357733110610988e-23 9.999999999999972e-07 5.49902957374426e-08  4.357256139021757e-23 9.998944902980081e-07 5.4927747816884e-08  4.356542453815241e-23 9.999999999999972e-07 5.509754056747561e-08  4.356038849447614e-23 9.998944066063532e-07 5.50373078226794e-08  4.355368227450266e-23 9.999999999999972e-07 5.520330547587069e-08  4.354786075757863e-23 9.998950888610669e-07 5.515082989983996e-08  4.354176553163483e-23 9.999999999999972e-07 5.53106419533487e-08  4.353622462293866e-23 9.998966060695396e-07 5.525715609156995e-08  4.352905374892759e-23 9.999999999999972e-07 5.542513951307582e-08  4.352435067290067e-23 9.998982439968119e-07 5.536574505277524e-08  4.351724005986242e-23 9.999999999999972e-07 5.553154776441936e-08  4.351116820230134e-23 9.998945390308095e-07 5.548077722613069e-08  4.350558788408817e-23 9.999999999999972e-07 5.563650123336932e-08  4.34996168712561e-23 9.998964219390762e-07 5.558670527477934e-08  4.349362653081553e-23 9.999999999999972e-07 5.574423952565232e-08  4.348816325393976e-23 9.9989779958144e-07 5.569124793049887e-08  4.348161954276641e-23 9.999999999999972e-07 5.585238885946e-08  4.347599120610076e-23 9.998959682632131e-07 5.57990526724962e-08  4.346994239664797e-23 9.999999999999972e-07 5.595756724127555e-08  4.346378333266684e-23 9.998947787464102e-07 5.590782190418918e-08  4.345796053624883e-23 9.999999999999972e-07 5.60654902453331e-08  4.345251252071651e-23 9.99896740591896e-07 5.601130219867443e-08  4.344503104631498e-23 9.999999999999972e-07 5.618194873742943e-08  4.343954744736803e-23 9.99895693653172e-07 5.612703425895249e-08  4.343166708582817e-23 9.999999999999972e-07 5.630232059236667e-08  4.342664856608964e-23 9.998957984965557e-07 5.624332189617392e-08  4.341993960896625e-23 9.999999999999972e-07 5.640795231321734e-08  4.341394326376485e-23 9.998942787020403e-07 5.635624129128964e-08  4.340771307182061e-23 9.999999999999972e-07 5.65180791694836e-08  4.340251463014519e-23 9.998975480485216e-07 5.646245061799267e-08  4.339522487118792e-23 9.999999999999972e-07 5.663056288091537e-08  4.33897198419211e-23 9.998965219850037e-07 5.65766697614313e-08  4.338314479082013e-23 9.999999999999972e-07 5.673937057180133e-08  4.337795023544442e-23 9.998950830720321e-07 5.668124203914509e-08  4.337077931238066e-23 9.999999999999972e-07 5.685074889998589e-08  4.336553360915576e-23 9.998926608458391e-07 5.679065884000568e-08  4.335897263231368e-23 9.999999999999972e-07 5.695709401988611e-08  4.335310295059921e-23 9.998952792399465e-07 5.690524265259958e-08  4.334713048077343e-23 9.999999999999972e-07 5.7063758638414e-08  4.334115939607527e-23 9.998965845033191e-07 5.701412589137921e-08  4.333446920735971e-23 9.999999999999972e-07 5.717780125087013e-08  4.332907204114578e-23 9.998979285534461e-07 5.712434315581886e-08  4.332199303304536e-23 9.999999999999972e-07 5.729017663885633e-08  4.331703629902139e-23 9.998989156993974e-07 5.723373862926321e-08  4.331034085727111e-23 9.999999999999972e-07 5.739513010780628e-08  4.330505122611391e-23 9.998974254761352e-07 5.734020034576143e-08  4.329790454794813e-23 9.999999999999972e-07 5.750714642387195e-08  4.329310740398688e-23 9.998993381141736e-07 5.744969336956108e-08  4.328564068004505e-23 9.999999999999972e-07 5.761760952570885e-08  4.328010870321477e-23 9.99896285485558e-07 5.756372262885252e-08  4.327389864263087e-23 9.999999999999972e-07 5.772337239635496e-08  4.326793724027283e-23 9.998953512576417e-07 5.767241919287607e-08  4.326198167352746e-23 9.999999999999972e-07 5.783071091158194e-08  4.325620524494303e-23 9.998946296810372e-07 5.777737003586267e-08  4.325024981102365e-23 9.999999999999972e-07 5.793638213478305e-08  4.324413563401428e-23 9.998937761121184e-07 5.788522985750644e-08  4.323832266700988e-23 9.999999999999972e-07 5.804381229745503e-08  4.323253426838707e-23 9.998931565283382e-07 5.798910608555757e-08  4.322558421754925e-23 9.999999999999972e-07 5.815855004994341e-08  4.322033264701949e-23 9.998934492143938e-07 5.809930120650188e-08  4.321348770312751e-23 9.999999999999972e-07 5.826750576562786e-08  4.320817667490978e-23 9.998942866203929e-07 5.82096298754283e-08  4.320181094055043e-23 9.999999999999972e-07 5.837268069280989e-08  4.319599217566443e-23 9.998943431665255e-07 5.831943463408287e-08  4.319015876477618e-23 9.999999999999972e-07 5.847763416175984e-08  4.318457316798612e-23 9.998981261551997e-07 5.842607090020703e-08  4.317736538174317e-23 9.999999999999972e-07 5.859286671188042e-08  4.317253805882517e-23 9.998963968070843e-07 5.853274417835687e-08  4.316571320596892e-23 9.999999999999972e-07 5.869782018083037e-08  4.315913243341051e-23 9.998917566278499e-07 5.864885113836682e-08  4.315405165342038e-23 9.999999999999972e-07 5.880285810825462e-08  4.314741289611107e-23 9.998931742293913e-07 5.875582894753753e-08  4.31419436044324e-23 9.999999999999972e-07 5.891191771807558e-08  4.313567355880596e-23 9.998915115449229e-07 5.885990481329497e-08  4.312857910240788e-23 9.999999999999972e-
[...]
<PointData  Tensors="f_58"> 
<DataArray  type="Float64"  Name="f_58"  NumberOfComponents="9" format="ascii">-6.9798801220392400e-66 -1.1619414192548306e-19 -2.1126455502207324e-19 -1.1619414192548306e-19 -2.1365569592301315e-03 3.8728325914789087e-07 -2.1126455502207324e-19 3.8728325914789087e-07 3.8499678337323541e-03  -7.0581997111594623e-66 -1.1593017171786663e-19 -2.1095900200811386e-19 -1.1593017171786663e-19 -2.1356880699889345e-03 4.0309896070466883e-07 -2.1095900200811386e-19 4.0309896070466883e-07 3.8483814866486295e-03  6.3851658273579695e-65 -1.1620221937747085e-19 -2.1124700117179597e-19 -1.1620221937747085e-19 -2.1379052023927443e-03 1.3521706405915284e-06 -2.1124700117179597e-19 1.3521706405915284e-06 3.8527841191624453e-03  1.1344814277700687e-65 -1.1595924509717948e-19 -2.1096122871327963e-19 -1.1595924509717948e-19 -2.1371989831338186e-03 1.4791211941297874e-06 -2.1096122871327963e-19 1.4791211941297874e-06 3.8515608175741117e-03  -4.0666545979639881e-66 -1.1644634616367343e-19 -2.1155330280284693e-19 -1.1644634616367343e-19 -2.1372871053068707e-03 3.3894196111516700e-07 -2.1155330280284693e-19 3.3894196111516700e-07 3.8512596071500448e-03  4.1646050340209958e-66 -1.1646036946728538e-19 -2.1155133920332933e-19 -1.1646036946728538e-19 -2.1387955107531236e-03 1.2308158831023492e-06 -2.1155133920332933e-19 1.2308158831023492e-06 3.8542637659997234e-03  8.5196429241028820e-66 -1.1670475769413564e-19 -2.1185230101806797e-19 -1.1670475769413564e-19 -2.1382073211475474e-03 2.4427943071720160e-07 -2.1185230101806797e-19 2.4427943071720160e-07 3.8527216426439154e-03  -1.2226733611165742e-66 -1.1671031623871814e-19 -2.1184553293756414e-19 -1.1671031623871814e-19 -2.1395516119397909e-03 1.1365175207419609e-06 -2.1184553293756414e-19 1.1365175207419609e-06 3.8556283528784364e-03  1.8790958425200801e-65 -1.1693917638238548e-19 -2.1211846653402493e-19 -1.1693917638238548e-19 -2.1387172635504528e-03 2.0811503711715562e-07 -2.1211846653402493e-19 2.0811503711715562e-07 3.8537311562654736e-03  -3.8431300409646842e-65 -1.1695072986738050e-19 -2.1212811974508034e-19 -1.1695072986738050e-19 -2.1402174037483306e-03 1.0382160757259638e-06 -2.1212811974508034e-19 1.0382160757259638e-06 3.8568572662503672e-03  4.3833836578129316e-65 -1.1715707836183117e-19 -2.1236143071255685e-19 -1.1715707836183117e-19 -2.1391440698586592e-03 1.8594422686639510e-07 -2.1236143071255685e-19 1.8594422686639510e-07 3.8545651013961475e-03  -5.4684299950726930e-65 -1.1717449018501897e-19 -2.1239160454594312e-19 -1.1717449018501897e-19 -2.1407049913137401e-03 9.3024871386521186e-07 -2.1239160454594312e-19 9.3024871386521186e-07 3.8578445317632684e-03  2.0020528966315528e-65 -1.1738509113243838e-19 -2.1260745842953769e-19 -1.1738509113243838e-19 -2.1396502915537684e-03 2.1997313794220893e-07 -2.1260745842953769e-19 2.1997313794220893e-07 3.8554639093341739e-03  -8.6805523251865429e-65 -1.1739451756717028e-19 -2.1264476379090671e-19 -1.1739451756717028e-19 -2.1411737672731783e-03 8.1461839781900053e-07 -2.1264476379090671e-19 8.1461839781900053e-07 3.8586788976709614e-03  -2.5937437854015730e-66 -1.1763028783753023e-19 -2.1287244187636379e-19 -1.1763028783753023e-19 -2.1401829459140563e-03 2.1365983649352145e-07 -2.1287244187636379e-19 2.1365983649352145e-07 3.8563403833415492e-03  -3.8489235729236802e-65 -1.1762654604581549e-19 -2.1291103834984369e-19 -1.1762654604581549e-19 -2.1416569752098677e-03 7.0108103063203095e-07 -2.1291103834984369e-19 7.0108103063203095e-07 3.8595519534088455e-03  5.3283341359869476e-66 -1.1784804129784842e-19 -2.1311208131728016e-19 -1.1784804129784842e-19 -2.1404938308008659e-03 1.5941786084616352e-07 -2.1311208131728016e-19 1.5941786084616352e-07 3.8569370470584383e-03  -1.5570830181668464e-66 -1.1785765567108304e-19 -2.1317105715643940e-19 -1.1785765567108304e-19 -2.1420778099254210e-03 5.9439530486728168e-07 -2.1317105715643940e-19 5.9439530486728168e-07 3.8602801981851942e-03  9.0137290019610048e-66 -1.1807499191153568e-19 -2.1335926179462358e-19 -1.1807499191153568e-19 -2.1408901438197772e-03 8.4578827387776766e-08 -2.1335926179462358e-19 8.4578827387776766e-08 3.8575481108317016e-03  -1.2525068718609325e-65 -1.1807766169925972e-19 -2.1341619872022675e-19 -1.1807766169925972e-19 -2.1424665280162605e-03 5.0196388829521343e-07 -2.1341619872022675e-19 5.0196388829521343e-07 3.8609368549987299e-03  1.7330779498166573e-66 -1.1829851518294978e-19 -2.1359783019153649e-19 -1.1829851518294978e-19 -2.1410806237647244e-03 6.9520809788037182e-08 -2.1359783019153649e-19 6.9520809788037182e-08 3.8579795036309205e-03  -1.2036561801196548e-65 -1.1830375440054956e-19 -2.1366425247784652e-19 -1.1830375440054956e-19 -2.1427633674482799e-03 4.1786700922155197e-07 -2.1366425247784652e-19 4.1786700922155197e-07 3.8614611158950774e-03  -1.8290851011978141e-66 -1.1849675178057193e-19 -2.1381308771868162e-19 -1.1849675178057193e-19 -2.1411672643397487e-03 -2.2244221891767045e-08 -2.1381308771868162e-19 -2.2244221891767045e-08 3.8581892359475585e-03  -4.7550867804507884e-67 -1.1850853976801310e-19 -2.1388700015780193e-19 -1.1850853976801310e-19 -2.1428570830778738e-03 3.2855702313781853e-07 -2.1388700015780193e-19 3.2855702313781853e-07 3.8616997918083542e-03  -5.1173227298860920e-67 -1.1870974563211694e-19 -2.1403093905772728e-19 -1.1870974563211694e-19 -2.1413493245881839e-03 -1.8681469251839711e-08 -2.1403093905772728e-19 -1.8681469251839711e-08 3.8584659264185354e-03  2.7788859520704655e-66 -1.1871399300824035e-19 -2.1411044375546306e-19 -1.1871399300824035e-19 -2.1430490208615622e-03 2.4465456711118817e-07 -2.1411044375546306e-19 2.4465456711118817e-07 3.8620480101463220e-03  -7.2955395941599900e-68 -1.1891233405028333e-19 -2.1423353389160215e-19 -1.1891233405028333e-19 -2.1412745611558265e-03 2.2140658110019399e-08 -2.1423353389160215e-19 2.2140658110019399e-08 3.8584729228155266e-03  1.0772402146634280e-67 -1.1890950782075843e-19 -2.1432061225408720e-19 -1.1890950782075843e-19 -2.1430894639927374e-03 1.4007244936507901e-07 -2.1432061225408720e-19 1.4007244936507901e-07 3.8621432663821890e-03  -1.9106528027941152e-67 -1.1913367453670929e-19 -2.1445881482800234e-19 -1.1913367453670929e-19 -2.1413122796853428e-03 -1.5580759850898366e-09 -2.1445881482800234e-19 -1.5580759850898366e-09 3.8585342287129065e-03  -3.0558847118258788e-67 -1.1911421122105061e-19 -2.1454251160248831e-19 -1.1911421122105061e-19 -2.1430392898227919e-03 -4.2483452322550794e-09 -2.1454251160248831e-19 -4.2483452322550794e-09 3.8621142252870735e-03  -1.4222768484325838e-67 -1.1933783432176955e-19 -2.1464776233250194e-19 -1.1933783432176955e-19 -2.1413663277042839e-03 7.8762889488685835e-08 -2.1464776233250194e-19 7.8762889488685835e-08 3.8584748785782099e-03  3.1814552402502786e-67 -1.1932680535951441e-19 -2.1477070690541926e-19 -1.1932680535951441e-19 -2.1430682596784143e-03 -1.5860133753918503e-07 -2.1477070690541926e-19 -1.5860133753918503e-07 3.8621155347525402e-03  9.8512829798146443e-68 -1.1951813761887247e-19 -2.1482858874713780e-19 -1.1951813761887247e-19 -2.1412229155337286e-03 -7.5166480221595952e-09 -2.1482858874713780e-19 -7.5166480221595952e-09 3.8581683309782994e-03  2.7088190558101784e-67 -1.1950454245539437e-19 -2.1495167947123549e-19 -1.1950454245539437e-19 -2.1429157420293052e-03 -2.5392424216431150e-07 -2.1495167947123549e-19 -2.5392424216431150e-07 3.8618306563374841e-03  -2.6421341852910140e-67 -1.1971313860911643e-19 -2.1502836615482919e-19 -1.1971313860911643e-19 -2.1409770513222707e-03 -1.0043400879642456e-07 -2.1502836615482919e-19 -1.0043400879642456e-07 3.8578226763354658e-03  -2.7678687165747880e-67 -1.1969679947001503e-19 -2.1514781763229198e-19 -1.1969679947001503e-19 -2.1428528032319261e-03 -3.5817515775722596e-07 -2.1514781763229198e-19 -3.5817515775722596e-07 3.8616291322285212e-03  -2.3340426395215956e-67 -1.1989772110676689e-19 -2.1520661472695644e-19 -1.1989772110676689e-19 -2.1407009875280564e-03 -1.5181972283602122e-07 -2.1520661472695644e-19 -1.5181972283602122e-07 3.8573297392516669e-03  1.0287068421125786e-66 -1.1988750334655848e-19 -2.1533946065904164e-19 -1.1988750334655848e-19 -2.1426374133604099e-03 -4.7475120009619494e-07 -2.1533946065904164e-19 -4.7475120009619494e-07 3.8611975084976761e-03  2.8943765179852709e-67 -1.2008539591487014e-19 -2.1537882108289357e-19 -1.2008539591487014e-19 -2.1404266333173291e-03 -1.5335142738933578e-07 -2.1537882108289357e-19 -1.5335142738933578e-07 3.8567736667731419e-03  8.6819678054952341e-67 -1.2006868877176445e-19 -2.1551706308097146e-19 -1.2006868877176445e-19 -2.1422385326086042e-03 -5.4193993161042155e-07 -2.1551706308097146e-19 -5.4193993161042155e-07 3.8605997046329203e-03  -2.2788247648481402e-67 -1.2025187987873407e-19 -2.1553472221197054e-19 -1.2025187987873407e-19 -2.1399498890824521e-03 -1.8412767746013253e-07 -2.1553472221197054e-19 -1.8412767746013253e-07 3.8560447266361851e-03  -5.0235297657485069e-67 -1.2024458990089863e-19 -2.1568854227007309e-19 -1.2024458990089863e-19 -2.1418690492364836e-03 -6.3263971242999907e-07 -2.1568854227007309e-19 -6.3263971242999907e-07 3.8599691631093632e-03  -2.1209047525430775e-67 -1.2043183082699234e-19 -2.1569671119407322e-19 -1.2043183082699234e-19 -2.1395400013426726e-03 -1.9654595570891529e-07 -2.1569671119407322e-19 -1.9654595570891529e-07 3.8552864283209862e-03  9.1265809233025927e-67 -1.2041788896858600e-19 -2.1585174437614253e-19 -1.2041788896858600e-19 -2.1415249924096645e-03 -7.1473808627800193e-07 -2.1585174437614253e-19 -7.1473808627800193e-07 3.8592790188443694e-03  -1.5870732555525588e-67 -1.2059950932807655e-19 -2.1584417790080167e-19 -1.2059950932807655e-19 -2.1391137302935572e-03 -2.3294643848517129e-07 -2.1584417790080167e-19 -2.3294643848517129e-07 3.8544232529900027e-03  6.1475662241839305e-67 -1.2058207952694249e-19 -2.1600636801814904e-19 -1.2058207952694249e-19 -2.1410117622123717e-03 -8.1881402977630926e-07 -2.1600636801814904e-19 -8.1881402977630926e-07 3.8583852945166075e-03  5.6555270598845749e-68 -1.2076987150322231e-19 -2.1599342013755242e-19 -1.2076987150322231e-19 -2.1385532728805594e-03 -2.7517478935768857e-07 -2.1599342013755242e-19 -2.7517478935768857e-07 3.8533978758877592e-03  3.4883082368386005e-67 -1.2074330922727551e-19 -2.1615938290556243e-19 -1.2074330922727551e-19 -2.1404876638329057e-03 -9.5053716346583092e-07 -2.1615938290556243e-19 -9.5053716346583092e-07 3.8574497649584358e-03  2.6724002715243993e-68 -1.2092556372239742e-19 -2.1611909411534460e-19 -1.2092556372239742e-19 -2.1377356158916237e-03 -2.8591730710244967e-07 -2.1611909411534460e-19 -2.8591730710244967e-07 3.8520179732986133e-03  -1.2112241149922687e-67 -1.2090712046215107e-19 -2.1631147093541433e-19 -1.2090712046215107e-19 -2.1398770646722872e-03 -1.1046522066713194e-06 -2.1631147093541433e-19 -1.1046522066713194e-06 3.8563197492220177e-03  -1.1154113998694528e-68 -1.2109952393218850e-19 -2.1626527831887048e-19 -1.2109952393218850e-19 -2.1370536332480155e-03 -2.7364515636129123e-07 -2.1626527831887048e-19 -2.7364515636129123e-07 3.8508601669154170e-03  -4.7065549703256298e-68 -1.2107805149025873e-19 -2.1646589943542314e-19 -1.2107805149025873e-19 -2.1392423831903050e-03 -1.2199096840578110e-06 -2.1646589943542314e-19 -1.2199096840578110e-06 3.8551572696665297e-03  -5.5119119992791120e-69 -1.2127486460132165e-19 -2.1640826440999139e-19 -1.2127486460132165e-19 -2.1363727660708878e-03 -3.1609974829957164e-07 -2.1640826440999139e-19 -3.1609974829957164e-07 3.8495115422900968e-03  2.1425871806537942e-68 -1.2125069656554639e-19 -2.1661953838643128e-19 -1.2125069656554639e-19 -2.1385234448165701e-03 -1.3455365696012048e-06 -2.1661953838643128e-19 -1.3455365696012048e-06 3.8538446936259921e-03  1.3678802503720349e-69 -1.2144058477542680e-19 -2.1654130032493820e-19 -1.2144058477542680e-19 -2.1354883722593775e-03 -3.7266976821783148e-07 -2.1654130032493820e-19 -3.7266976821783148e-07 3.8479252211698054e-03  9.2052940910443042e-69 -1.2141545960762208e-19 -2.1676002413540179e-19 -1.2141545960762208e-19 -2.1377439517330089e-03 -1.4414084021174782e-06 -2.1676002413540179e-19 -1.4414084021174782e-06 3.8524361160451378e-03  1.9369309498091455e-69 -1.2159238462719862e-19 -2.1666047721478363e-19 -1.2159238462719862e-19 -2.1345886564028481e-03 -4.3330248921355577e-07 -2.1666047721478363e-19 -4.3330248921355577e-07 3.8463165568333418e-03  -1.3926877195808879e-68 -1.2157280128179227e-19 -2.1688106705309794e-19 -1.2157280128179227e-19 -2.1368349676737747e-03 -1.4832783803594460e-06 -2.1688106705309794e-19 -1.4832783803594460e-06 3.8507894917650981e-03  -1.7097973467958797e-68 -1.2175820600478001e-19 -2.1679083577074009e-19 -1.2175820600478001e-19 -2.1336081000360662e-03 -4.8104974621786467e-07 -2.1679083577074009e-19 -4.8104974621786467e-07 3.8446016645524825e-03  -3.6062818127965933e-69 -1.2173142047858939e-19 -2.1700854223528033e-19 -1.2173142047858939e-19 -2.1359543298678789e-03 -1.5595330601638972e-06 -2.1700854223528033e-19 -1.5595330601638972e-06 3.8491953039113133e-03  -1.1029245033066639e-68 -1.2191959333246854e-19 -2.1691130854912569e-19 -1.2191959333246854e-19 -2.1326076263195747e-03 -5.2079477956469121e-07 -2.1691130854912569e-19 -5.2079477956469121e-07 3.8427846497710522e-03  3.9588110990967972e-68 -1.2188916420947535e-19 -2.1713500007753047e-19 -1.2188916420947535e-19 -2.1349136818165689e-03 -1.6599670371547505e-06 -2.1713500007753047e-19 -1.6599670371547505e-06 3.8473901914393804e-03  -7.3780406307167643e-69 -1.2207286917814675e-19 -2.1701335709580307e-19 -1.2207286917814675e-19 -2.1316043316411846e-03 -4.8609662708589913e-07 -2.1701335709580307e-19 -4.8609662708589913e-07 3.8409279224210281e-03  2.2031809328933765e-68 -1.2203945835462935e-19 -2.1725940273826220e-19 -1.2203945835462935e-19 -2.1339088837200068e-03 -1.8140080231544792e-06 -2.1725940273826220e-19 -1.8140080231544792e-06 3.8456108918506920e-03  -3.6461951406180790e-69 -1.2221972482576436e-19 -2.1710483035203345e-19 -1.2221972482576436e-19 -2.1303980705092845e-03 -4.7665183496422600e-07 -2.1710483035203345e-19 -4.7665183496422600e-07 3.8387428704049239e-03  1.3612238642678138e-68 -1.2218737974908196e-19 -2.1736874143850737e-19 -1.2218737974908196e-19 -2.1328330362119985e-03 -1.9365603177517898e-06 -2.1736874143850737e-19 -1.9365603177517898e-06 3.8435948957221367e-03  -1.3458127895002042e-69 -1.2235864642917795e-19 -2.1719314999925898e-19 -1.2235864642917795e-19 -2.1291188867164300e-03 -5.1700705307506422e-07 -2.1719314999925898e-19 -5.1700705307506422e-07 3.8364714123729554e-03  5.4196808065789734e-69 -1.2233175715326064e-19 -2.1746856069009760e-19 -1.2233175715326064e-19 -2.1316135418285673e-03 -2.0238385332141485e-06 -2.1746856069009760e-19 -2.0238385332141485e-06 3.8413981565955176e-03  8.6764955884962036e-70 -1.2251632797276970e-19 -2.1729814052136028e-19 -1.2251632797276970e-19 -2.1277951001646518e-03 -5.3849972240268556e-07 -2.1729814052136028e-19 -5.3849972240268556e-07 3.8341554434189154e-03  3.1782321623067739e-69 -1.2248269233688177e-19 -2.1756961054734830e-19 -1.2248269233688177e-19 -2.1304140929139419e-03 -2.0829311950418885e-06 -2.1756961054734830e-19 -2.0829311950418885e-06 3.8391818682065389e-03  2.0588178243011190e-69 -1.2265852323476426e-19 -2.1739364069830142e-19 -1.2265852323476426e-19 -2.1263117723953925e-03 -6.7404446943856399e-07 -2.1739364069830142e-19 -6.7404446943856399e-07 3.8315598422863097e-03  -7.3501949794348791e-69 -1.2262110493104348e-19 -2.1766673257583500e-19 -1.2262110493104348e-19 -2.1289250259898551e-03 -2.2382904092835884e-06 -2.1766673257583500e-19 -2.2382904092835884e-06 3.8366382581474885e-03  2.9181132461211031e-68 -1.2280200120859278e-19 -2.1745643267197918e-19 -1.2280200120859278e-19 -2.1251093962827709e-03 -5.9757011085520036e-07 -2.1745643267197918e-19 -5.9757011085520036e-07 3.8290569051317885e-03  -1.8617122859817068e-68 -1.2274866501156457e-19 -2.1775148518554950e-19 -1.2274866501156457e-19 -2.1275794523963371e-03 -2.3943034416104496e-06 -2.1775148518554950e-19 -2.3943034416104496e-06 3.8342095076523671e-03  1.7418804267007628e-68 -1.2294543024887249e-19 -2.1752805804806437e-19 -1.2294543024887249e-19 -2.1237103432325539e-03 -5.4123768945474989e-07 -2.1752805804806437e-19 -5.4123768945474989e-07 3.8264770171016287e-03  -8.7910014782908351e-68 -1.2288788737580635e-19 -2.1784039909060973e-19 -1.2288788737580635e-19 -2.1262041934253678e-03 -2.4911212461411749e-06 -2.1784039909060973e-19 -2.4911212461411749e-06 3.8317343364388332e-03  8.8406211012866370e-69 -1.2306633899119489e-19 -2.1759302415709602e-19 -1.2306633899119489e-19 -2.1220251409569172e-03 -6.2351271305784695e-07 -2.1759302415709602e-19 -6.2351271305784695e-07 3.8236194918923327e-03  1.9041473140291904e-68 -1.2302029019529135e-19 -2.1791312134836476e-19 -1.2302029019529135e-19 -2.1246880410918595e-03 -2.5961257862122442e-06 -2.1791312134836476e-19 -2.5961257862122442e-06 3.8289330656047478e-03  4.6175573697520736e-69 -1.2318069298089970e-19 -2.1763936498473403e-19 -1.2318069298089970e-19 -2.1203003208204257e-03 -6.8441537175411081e-07 -2.1763936498473403e-19 -6.8441537175411081e-07 3.8205476502277715e-03  3.4417787094935789e-68 -1.2314198403535913e-19 -2.1797175148661120e-19 -1.2314198403535913e-19 -2.1230977330036053e-03 -2.6764199454265397e-06 -2.1797175148661120e-19 -2.6764199454265397e-06 3.8260461145435418e-03  1.4784265178029983e-68 -1.2333272421206218e-19 -2.1773088696807997e-19 -1.2333272421206218e-19 -2.1187773901722054e-03 -7.5580514797251703e-07 -2.1773088696807997e-19 -7.5580514797251703e-07 3.8177919023260685e-03  3.1194538282923531e-68 -1.2327405630691060e-19 -2.1803859939069217e-19 -1.2327405630691060e-19 -2.1214110484880861e-03 -2.7455828339600448e-06 -2.1803859939069217e-19 -2.7455828339600448e-06 3.8230461265001871e-03  3.3629612948046557e-68 -1.2344795806520595e-19 -2.1777043188391509e-19 -1.2344795806520595e-19 -2.1169437265101416e-03 -8.0089781735610816e-07 -2.1777043188391509e-19 -8.0089781735610816e-07 3.8145045626453234e-03  -2.1439740072610222e-68 -1.2340225841978909e-19 -2.1810327352548404e-19 -1.2340225841978909e-19 -2.1196958824144154e-03 -2.8588940660004397e-06 -2.1810327352548404e-19 -2.8588940660004397e-06 3.8199599196466708e-03  1.5249659597850731e-68 -1.2355783150498432e-19 -2.1780001720215537e-19 -1.2355783150498432e-19 -2.1151203235945399e-03 -7.9230181132075923e-07 -2.1780001720215537e-19 -7.9230181132075923e-07 3.8112520095274233e-03  -1.0093210100558594e-67 -1.2351180569963588e-19 -2.1814635694189854e-19 -1.2351180569963588e-19 -2.1179024143400285e-03 -2.9606674266570948e-06 -2.1814635694189854e-19 -2.9606674266570948e-06 3.8167655983293533e-03  1.1797193331814648e-68 -1.2368485365190195e-19 -2.1785049972171141e-19 -1.2368485365190195e-19 -2.1133789472183580e-03 -8.1948995945823175e-07 -2.1785049972171141e-19 -8.1948995945823175e-07 3.8080774415047087e-03  -5.5264148177296945e-68 -1.2363690814935214e-19 -2.1820269667015227e-19 -1.2363690814935214e-19 -2.1161776659666511e-03 -3.0594003262672292e-06 -2.1820269667015227e-19 -3.0594003262672292e-06 3.8136046650916683e-03  1.3161125156810370e-68 -1.2381271217466656e-19 -2.1789578269060523e-19 -1.2381271217466656e-19 -2.1115639182395776e-03 -8.2297859307864559e-07 -2.1789578269060523e-19 -8.2297859307864559e-07 3.8047678863225983e-03  -5.2479762719766081e-68 -1.2375626930602303e-19 -2.1825704302451828e-19 -1.2375626930602303e-19 -2.1143624678903088e-03 -3.2057196076599735e-06 -2.1825704302451828e-19 -3.2057196076599735e-06 3.8103256258931765e-03  1.8042243464683274e-68 -1.2391118626834399e-19 -2.1791165458562314e-19 -1.2391118626834399e-19 -2.1095096165754772e-03 -8.8903181499515728e-07 -2.1791165458562314e-19 -8.8903181499515728e-07 3.8010934492928943e-03  -5.6404950478774543e-68 -1.2386656939430498e-19 -2.1829760405503016e-19 -1.2386656939430498e-19 -2.1124411684679445e-03 -3.3391580936848609e-06 -2.1829760405503016e-19 -3.3391580936848609e-06 3.8068811423228504e-03  -3.0855545727987675e-68 -1.2403364852168700e-19 -2.1794320408883389e-19 -1.2403364852168700e-19 -2.1075108735910527e-03 -