<?xml version="1.0"?>
<VTKFile type="UnstructuredGrid"  version="0.1"  >
<UnstructuredGrid>
<Piece  NumberOfPoints="10324" NumberOfCells="20301">
<Points>
<DataArray  type="Float64"  NumberOfComponents="3"  format="ascii">4.67879069290115e-23 9.739280004218834e-07 1.168322723194976e-38  4.667657718197442e-23 9.729252312073407e-07 1.16585070622525e-38  4.670737745518599e-23 9.733937811299548e-07 1.911257246971979e-10  4.674687491597103e-23 9.738000778573666e-07 2.416609527618039e-10  4.670034842591251e-23 9.735451776551778e-07 4.058341171538256e-10  4.675480616557918e-23 9.739929520813918e-07 3.630968312272253e-10  4.678589875629298e-23 9.74112116763869e-07 2.022043537991005e-10  4.672402993672952e-23 9.738115970557859e-07 4.589494311798301e-10  4.674185411394599e-23 9.74042360890422e-07 5.291673500753104e-10  4.677293949513178e-23 9.741930467742541e-07 3.998610116573792e-10  4.666058633120551e-23 9.730204290680063e-07 2.392306397940616e-10  4.663330289945338e-23 9.727362859040542e-07 2.008347819865109e-10  4.662904069496083e-23 9.728434178967291e-07 3.46357299790265e-10  4.663353530478787e-23 9.729937358631093e-07 4.561914198860761e-10  4.666592183682011e-23 9.732405032481361e-07 4.112468577283547e-10  4.660644200100233e-23 9.727912637590917e-07 4.977541015339419e-10  4.659988625651504e-23 9.726338866787814e-07 3.994259180839856e-10  4.6710231995311e-23 9.738824288885419e-07 6.540620715976175e-10  4.6688115814574e-23 9.736427996043057e-07 6.136376340134468e-10  4.659832758408266e-23 9.728699920582621e-07 6.495705707359791e-10  4.676128748376971e-23 9.742723608929223e-07 5.841271183821895e-10  4.657184032588357e-23 9.725935394332169e-07 6.116939580016258e-10  4.665918875055782e-23 9.733764965297615e-07 6.078863889175712e-10  4.656850384073798e-23 9.724032208115514e-07 4.514277228530424e-10  4.663010166862998e-23 9.731241178148823e-07 6.175008167014241e-10  4.679213977527093e-23 9.744134846623609e-07 4.473581508040508e-10  4.672769559093405e-23 9.741081943871802e-07 7.225294847548626e-10  4.659686140129638e-23 9.724911912674044e-07 2.839759803782072e-10  4.680144144243893e-23 9.743343920375136e-07 2.844835563732038e-10  4.653952915692726e-23 9.723151072218352e-07 6.24294883563123e-10  4.656037438840074e-23 9.727104350976924e-07 8.318656060274606e-10  4.657206384196031e-23 9.722460170335494e-07 2.621583044944777e-10  4.678457960945398e-23 9.745207063491994e-07 6.226757575546207e-10  4.667914686951895e-23 9.737362327747732e-07 7.878558796966456e-10  4.801253414641938e-23 9.849584617818553e-07 1.195514909861953e-38  4.79012043993823e-23 9.839556925673124e-07 1.193042892892228e-38  4.793106256396419e-23 9.844132423192652e-07 1.88611314182825e-10  4.778987465234522e-23 9.829529233527695e-07 1.190570875922502e-38  4.781956556085074e-23 9.834051022234992e-07 1.847469417662401e-10  4.767854490530815e-23 9.819501541382268e-07 1.188098858952777e-38  4.771022559457956e-23 9.82413752273933e-07 1.782438549111524e-10  4.756721515827106e-23 9.809473849236837e-07 1.185626841983052e-38  4.760042599880113e-23 9.814227450238241e-07 1.76223442068675e-10  4.73445556641969e-23 9.789418464945978e-07 1.180682808043602e-38  4.723322591715983e-23 9.779390772800551e-07 1.178210791073877e-38  4.727363635475824e-23 9.784820514161374e-07 1.789892726620209e-10  4.689923667604858e-23 9.749307696364264e-07 1.170794740164701e-38  4.682959602680809e-23 9.744410297385655e-07 1.375273060777468e-10  4.656524743493734e-23 9.719224619927976e-07 1.163378689255525e-38  4.660961387838746e-23 9.724568596641082e-07 1.347802749310494e-10  4.645391768790026e-23 9.709196927782549e-07 1.1609066722858e-38  4.649409502264051e-23 9.714574682640007e-07 1.758902262160427e-10  4.634258794086318e-23 9.69916923563712e-07 1.158434655316075e-38  4.62312581938261e-23 9.68914154349169e-07 1.15596263834635e-38  4.626688361517531e-23 9.694157521247992e-07 1.80712507003827e-10  4.682076259284314e-23 9.745268069056942e-07 3.028689730323444e-10  4.653309804984768e-23 9.724513887183041e-07 8.185026429262856e-10  4.659108406019282e-23 9.729826894034893e-07 8.275117789453805e-10  4.674672104296379e-23 9.743418248094937e-07 7.847938697250661e-10  4.682086432924114e-23 9.746585877726116e-07 4.33733479941494e-10  4.795976049556506e-23 9.8476070557375e-07 2.775865805396577e-10  4.784949432868034e-23 9.837540032018343e-07 2.640735448112492e-10  4.773418282421504e-23 9.827368782324352e-07 2.855822724951173e-10  4.728928938124084e-23 9.78746632227933e-07 3.025801559890892e-10  4.654002916541793e-23 9.719844969236952e-07 2.891809093185899e-10  4.651025124453443e-23 9.717208405507253e-07 2.937402031383124e-10  4.804234015404323e-23 9.853662424567753e-07 1.393120252636566e-10  4.799519812486314e-23 9.850627126879307e-07 2.603999065168966e-10  4.788259093371826e-23 9.840700485389315e-07 2.820111656763976e-10  4.777182982014318e-23 9.830692755149522e-07 2.788855613448196e-10  4.730431719581237e-23 9.789800537773912e-07 4.006431852383169e-10  4.732926700623641e-23 9.790306382668904e-07 2.264997608801625e-10  4.792051691591311e-23 9.845100422881505e-07 3.80398036334572e-10  4.781141288255488e-23 9.835112536451914e-07 3.643311613290372e-10  4.768623956296641e-23 9.824117418899229e-07 3.922804369712787e-10  4.725068674194432e-23 9.784714278986541e-07 3.750774906129939e-10  4.647520585677278e-23 9.714756368749665e-07 3.641973179082295e-10  4.795614908354365e-23 9.849088242616346e-07 4.582339760921559e-10  4.78450856242071e-23 9.838968636335868e-07 4.466440562093476e-10  4.773366368387766e-23 9.828988276254466e-07 4.522076659664128e-10  4.727500863877404e-23 9.788502015524024e-07 5.347789733627033e-10  4.650736446749361e-23 9.718905049110335e-07 4.894063394572042e-10  4.653936056484246e-23 9.721472219821125e-07 4.579281863409818e-10  4.762261266724777e-23 9.81740437917683e-07 2.940765924298387e-10  4.685385173622832e-23 9.747529999058599e-07 2.310214655589215e-10  4.629162454654621e-23 9.697220476028918e-07 2.641614864907428e-10  4.778704349089827e-23 9.833049840012424e-07 3.775614837479418e-10  4.766386122594727e-23 9.820977860008179e-07 2.798906883873865e-10  4.755693756763843e-23 9.810946754332009e-07 2.39862816203843e-10  4.723107477833803e-23 9.782165109763933e-07 2.968094323306468e-10  4.641958084218869e-23 9.709175874308762e-07 3.071734637248063e-10  4.645164006006395e-23 9.712085002147121e-07 3.093224842071153e-10  4.622480508511325e-23 9.691457377488074e-07 2.897078356274837e-10  4.718467278792356e-23 9.777215945677037e-07 2.198449971208075e-10  4.719734131580691e-23 9.779258998684074e-07 3.100423429149104e-10  4.618454552008367e-23 9.686890054545145e-07 1.956014654651706e-10  4.619551062460912e-23 9.688751609601977e-07 2.829920898385584e-10  4.684885896302455e-23 9.748982798194669e-07 4.212722822461564e-10  4.688746938662484e-23 9.750506341369636e-07 2.258548210649863e-10  4.630399519347941e-23 9.699362479868985e-07 3.669369886600576e-10  4.633494060839288e-23 9.700521638934885e-07 2.041213771038346e-10  4.752509456465107e-23 9.80794108668215e-07 2.261123239945368e-10  4.752318449421618e-23 9.809207347021325e-07 3.699427429096925e-10  4.753528516310427e-23 9.811168519277938e-07 4.570668327803374e-10  4.757377016096891e-23 9.813864699736233e-07 3.800428345246075e-10  4.624238107790306e-23 9.694046897264431e-07 3.903493441055079e-10  4.732916773607626e-23 9.791868996617306e-07 3.836553018329359e-10  4.719672496755204e-23 9.780781568637173e-07 4.678509097668012e-10  4.641631529047964e-23 9.710915498166523e-07 5.105493244209002e-10  4.619117074789324e-23 9.689986169816365e-07 4.45538245598263e-10  4.627811656350968e-23 9.697931918416543e-07 4.569748199929163e-10  4.7161116849854e-23 9.776995195215049e-07 4.099429787468251e-10  4.765076356033801e-23 9.821853923082006e-07 4.854702796846527e-10  4.789543166793594e-23 9.842952701073439e-07 3.915736824129747e-10  4.774941267317945e-23 9.831376579523275e-07 5.491837081451957e-10  4.625542446102504e-23 9.696083082368798e-07 4.764835038065635e-10  4.721349839539179e-23 9.783222072722554e-07 5.608197115672652e-10  4.620335997356913e-23 9.69192556756756e-07 5.296872362942087e-10  4.724834361565283e-23 9.785997737955968e-07 5.245283929421724e-10  4.762177164766498e-23 9.81929704361746e-07 4.909182674519977e-10  4.797981561560813e-23 9.851433382944178e-07 4.795788389017944e-10  4.644371727460851e-23 9.713590379887137e-07 5.312223654584047e-10  4.792365010698237e-23 9.846731299328919e-07 5.152644048119742e-10  4.781528236204756e-23 9.836773409556255e-07 4.955652989604279e-10  4.769734934657411e-23 9.8264425557762e-07 5.247260900366824e-10  4.64745444524318e-23 9.71625668606399e-07 5.201864500279303e-10  4.729863164889078e-23 9.790870227122618e-07 5.588229741038719e-10  4.75843004977711e-23 9.816259922740947e-07 5.247162931991794e-10  4.632023385495943e-23 9.701110757130021e-07 3.954998551829277e-10  4.687336809382322e-23 9.751191392843884e-07 4.213731225034543e-10  4.749405748805021e-23 9.807009730546824e-07 4.125338436904082e-10  4.801325126474112e-23 9.853083688017262e-07 3.434477922577406e-10  4.616236004278854e-23 9.687939869971267e-07 5.004120226361516e-10  4.638618249912346e-23 9.70831675829267e-07 5.220873928823038e-10  4.716688453410406e-23 9.778704884018171e-07 5.289611777803126e-10  4.638751351296093e-23 9.707009886421779e-07 3.79411498948273e-10  4.616553249791374e-23 9.686861161156608e-07 3.639662057309868e-10  4.640622569866853e-23 9.70696054648312e-07 2.05933119922366e-10  4.749953894188972e-23 9.808732987077815e-07 5.354869498514384e-10  4.785773509922396e-23 9.841232728131412e-07 5.591168938191256e-10  4.628967758590694e-23 9.699954495349296e-07 5.551000809475832e-10  4.77823637181631e-23 9.834283195366757e-07 5.430486646738566e-10  4.681470884491478e-23 9.747784747396142e-07 6.090641207809918e-10  4.754402976967807e-23 9.813260699615726e-07 5.87520452744521e-10  4.621773261908184e-23 9.694451428651095e-07 6.528160626969753e-10  4.788862947589096e-23 9.844104068795902e-07 5.679791537775267e-10  4.625132406258893e-23 9.697259334817067e-07
[...]
<PointData  Tensors="f_58"> 
<DataArray  type="Float64"  Name="f_58"  NumberOfComponents="9" format="ascii">-1.1180987597945070e-02 2.0311819358739064e-18 1.6359184395997832e-19 2.0311819358739064e-18 1.5214387078564593e-02 -1.1304865291414174e-05 1.6359184395997832e-19 -1.1304865291414174e-05 -3.9554598369451058e-03  -1.1180942567173441e-02 1.9661303569182733e-18 1.0160566865247164e-19 1.9661303569182733e-18 1.5160788711467912e-02 6.2692497489878154e-06 1.0160566865247164e-19 6.2692497489878154e-06 -3.9218445811233116e-03  -1.1181050547244489e-02 1.9945655498581405e-18 1.3234846715215691e-19 1.9945655498581405e-18 1.5155144366713455e-02 -4.9777086675867651e-06 1.3234846715215691e-19 -4.9777086675867651e-06 -3.9804802395097634e-03  -1.1181036519999918e-02 2.0059716533349009e-18 1.2787000388152289e-19 2.0059716533349009e-18 1.4863692884557664e-02 -1.1905500647438319e-04 1.2787000388152289e-19 -1.1905500647438319e-04 -3.6310043829388375e-03  -1.1180935648843074e-02 1.9862327007422063e-18 1.2800236878910471e-19 1.9862327007422063e-18 1.4831051419921916e-02 -3.9127078418121050e-05 1.2800236878910471e-19 -3.9127078418121050e-05 -3.7962751522384887e-03  -1.1181003699594223e-02 2.0068865456170599e-18 1.5820155252580956e-19 2.0068865456170599e-18 1.4703032464679742e-02 1.8869304944467245e-05 1.5820155252580956e-19 1.8869304944467245e-05 -3.7243530699338019e-03  -1.1181095530766891e-02 2.0270596830961313e-18 1.7909502927977770e-19 2.0270596830961313e-18 1.4936887323876748e-02 1.6993007204612313e-04 1.7909502927977770e-19 1.6993007204612313e-04 -3.6692465360327257e-03  -1.1181011565760885e-02 1.9992276754473925e-18 1.4121012563664357e-19 1.9992276754473925e-18 1.4667462070169938e-02 -3.8477857130680821e-05 1.4121012563664357e-19 -3.8477857130680821e-05 -3.6353723360529095e-03  -1.1180984256890705e-02 2.0052376060965021e-18 1.5665647951829824e-19 2.0052376060965021e-18 1.4592509002708903e-02 2.5537503531290478e-06 1.5665647951829824e-19 2.5537503531290478e-06 -3.6482929245002611e-03  -1.1181001708388118e-02 2.0216501207643212e-18 1.7089109912368116e-19 2.0216501207643212e-18 1.4786747672805705e-02 4.8440731465683668e-05 1.7089109912368116e-19 4.8440731465683668e-05 -3.7115590657970567e-03  -1.1181012367205402e-02 1.9523181432614619e-18 9.8502759696648974e-20 1.9523181432614619e-18 1.4851015632045824e-02 9.8416414448302569e-05 9.8502759696648974e-20 9.8416414448302569e-05 -3.6208384550140173e-03  -1.1181041066711726e-02 1.9406854047087914e-18 5.9291869378568235e-20 1.9406854047087914e-18 1.4883256168745577e-02 -1.5831291623947380e-04 5.9291869378568235e-20 -1.5831291623947380e-04 -3.6697912360374920e-03  -1.1181030164646137e-02 1.9391011183939698e-18 8.0336614415189572e-20 1.9391011183939698e-18 1.4727781975884367e-02 -5.8962705108262050e-05 8.0336614415189572e-20 -5.8962705108262050e-05 -3.7232432054404661e-03  -1.1181015732262840e-02 1.9387193961567074e-18 8.6378982005330315e-20 1.9387193961567074e-18 1.4657673424984263e-02 9.3487739616475119e-06 8.6378982005330315e-20 9.3487739616475119e-06 -3.6322089458430923e-03  -1.1181008160300817e-02 1.9647977539332952e-18 1.1465613870515100e-19 1.9647977539332952e-18 1.4807256259033827e-02 3.1662681521411153e-05 1.1465613870515100e-19 3.1662681521411153e-05 -3.7767588608988291e-03  -1.1180979443069738e-02 1.9296813586178526e-18 7.6725135236850349e-20 1.9296813586178526e-18 1.4639811546666985e-02 -2.4197744075722276e-05 7.6725135236850349e-20 -2.4197744075722276e-05 -3.6702740923504574e-03  -1.1180982849815696e-02 1.9327806303988175e-18 7.2035847110668764e-20 1.9327806303988175e-18 1.4798968501577315e-02 -4.9152160998073231e-05 7.2035847110668764e-20 -4.9152160998073231e-05 -3.7390404726155109e-03  -1.1180992820547997e-02 1.9866144037345281e-18 1.4097856691818385e-19 1.9866144037345281e-18 1.4451540709308574e-02 -4.0916650201360503e-06 1.4097856691818385e-19 -4.0916650201360503e-06 -3.5736902126555291e-03  -1.1181065272036375e-02 1.9754184809440280e-18 1.2755822506484289e-19 1.9754184809440280e-18 1.4519672425761746e-02 -1.0859980700344459e-05 1.2755822506484289e-19 -1.0859980700344459e-05 -3.6154318919952647e-03  -1.1180975005929322e-02 1.9269515603853625e-18 7.8109143690714096e-20 1.9269515603853625e-18 1.4497327961035211e-02 -2.0608713091923224e-05 7.8109143690714096e-20 -2.0608713091923224e-05 -3.5947113235063801e-03  -1.1181003100676554e-02 2.0177129203466366e-18 1.7212831931795773e-19 2.0177129203466366e-18 1.4545399923804709e-02 1.6656004414645933e-05 1.7212831931795773e-19 1.6656004414645933e-05 -3.6269976304333625e-03  -1.1181025284243798e-02 1.9132108804990344e-18 6.3459402733606925e-20 1.9132108804990344e-18 1.4550368736962803e-02 -1.8993130377565687e-05 6.3459402733606925e-20 -1.8993130377565687e-05 -3.6282453022361836e-03  -1.1181092387760832e-02 1.9617048617921506e-18 1.1166906076126461e-19 1.9617048617921506e-18 1.4573000171669945e-02 -1.1719777593117172e-05 1.1166906076126461e-19 -1.1719777593117172e-05 -3.6313423257990462e-03  -1.1180852072972106e-02 1.9126873938241160e-18 5.7460018456210212e-20 1.9126873938241160e-18 1.4757341405409592e-02 -2.0626767116599205e-05 5.7460018456210212e-20 -2.0626767116599205e-05 -3.7394938200148325e-03  -1.1180938693187132e-02 1.9406461089415348e-18 9.4132120999265674e-20 1.9406461089415348e-18 1.4514224112449939e-02 8.4380938700136728e-08 9.4132120999265674e-20 8.4380938700136728e-08 -3.6120939048188954e-03  -1.1180984533928804e-02 2.0423436794228024e-18 1.8981724838944479e-19 2.0423436794228024e-18 1.4771474110263021e-02 -6.8067260967701645e-07 1.8981724838944479e-19 -6.8067260967701645e-07 -3.7626551453638721e-03  -1.1180997816280291e-02 1.9972357705274530e-18 1.5547575281089640e-19 1.9972357705274530e-18 1.4371599382417888e-02 1.2656390808721264e-06 1.5547575281089640e-19 1.2656390808721264e-06 -3.5528648188450983e-03  -1.1181087090863200e-02 1.9322789734174305e-18 7.0015920039020148e-20 1.9322789734174305e-18 1.4994126087617148e-02 -4.5837542874302452e-05 7.0015920039020148e-20 -4.5837542874302452e-05 -3.9004265820483546e-03  -1.1181115175280910e-02 2.0545100976347661e-18 1.9832659130880387e-19 2.0545100976347661e-18 1.5049002830439154e-02 2.6058559837111650e-05 1.9832659130880387e-19 2.6058559837111650e-05 -3.9210866716364390e-03  -1.1181023216139957e-02 1.8957680669700081e-18 4.6900550883619556e-20 1.8957680669700081e-18 1.4556231120336716e-02 -4.6356292379467374e-06 4.6900550883619556e-20 -4.6356292379467374e-06 -3.6213125850733528e-03  -1.1180955337626796e-02 1.9046533762563586e-18 6.4859915545185543e-20 1.9046533762563586e-18 1.4301877167990369e-02 4.1242806527658848e-06 6.4859915545185543e-20 4.1242806527658848e-06 -3.5127667055525236e-03  -1.1181043820761169e-02 1.9132835688289379e-18 6.4718936815325458e-20 1.9132835688289379e-18 1.4964514771783384e-02 1.1287301208633710e-04 6.4718936815325458e-20 1.1287301208633710e-04 -3.8000764375086746e-03  -1.1180935326821240e-02 2.0359666240739964e-18 1.8738053453298458e-19 2.0359666240739964e-18 1.4489796992144425e-02 -2.5663987008681357e-05 1.8738053453298458e-19 -2.5663987008681357e-05 -3.6018291237278886e-03  -1.1180930357391138e-02 1.9697300114381303e-18 1.3006008631496042e-19 1.9697300114381303e-18 1.4301800674575524e-02 -4.4709583262320157e-06 1.3006008631496042e-19 -4.4709583262320157e-06 -3.5320561489287500e-03  5.4571071945893854e-08 5.9198389339803964e-19 6.5929509526997412e-19 5.9198389339803964e-19 -2.2292722244224993e-03 4.7971245009316055e-06 6.5929509526997412e-19 4.7971245009316055e-06 1.0264048008903912e-03  -4.7232893376847799e-07 6.4968425874050515e-19 7.1863520133928666e-19 6.4968425874050515e-19 -2.3872812884090482e-03 -1.3406506574416089e-05 7.1863520133928666e-19 -1.3406506574416089e-05 1.1174138598170616e-03  1.1141260323622495e-07 6.2331164312580955e-19 6.8089445641829014e-19 6.2331164312580955e-19 -2.2848550633717754e-03 -6.6137823709255773e-05 6.8089445641829014e-19 -6.6137823709255773e-05 1.1154824952096542e-03  4.5869250418356240e-06 7.3566805030167459e-19 8.1060297829657742e-19 7.3566805030167459e-19 -2.4983058694177901e-03 6.5727518176238161e-06 8.1060297829657742e-19 6.5727518176238161e-06 1.1707175679603074e-03  -1.1155768018198855e-06 6.9195830477104456e-19 7.5050450901955989e-19 6.9195830477104456e-19 -2.4705979268254317e-03 -9.0302228199196875e-05 7.5050450901955989e-19 -9.0302228199196875e-05 1.2330876622747085e-03  -4.7039101284036979e-05 8.3378178361568430e-19 9.0898697045216933e-19 8.3378178361568430e-19 -2.8189027052470828e-03 -1.8849057733245565e-05 9.0898697045216933e-19 -1.8849057733245565e-05 1.3323501815664122e-03  1.1329467378194001e-05 7.9308774537338814e-19 8.5461391624512484e-19 7.9308774537338814e-19 -2.5857676362088626e-03 -6.7188403303095382e-05 8.5461391624512484e-19 -6.7188403303095382e-05 1.3656928035217634e-03  4.7408342398334022e-04 1.1456777417095436e-18 1.2902143945710303e-18 1.1456777417095436e-18 -2.9450455311780246e-03 9.8053539675702647e-06 1.2902143945710303e-18 9.8053539675702647e-06 1.3090822231947687e-03  -1.0413298283745041e-04 9.2614527055296766e-19 9.4997985550980770e-19 9.2614527055296766e-19 -3.1383259440812953e-03 -5.0213054970101555e-04 9.4997985550980770e-19 -5.0213054970101555e-04 1.4964331672803854e-03  -1.1528063654713075e-02 2.8116727924666132e-18 9.2171823079944895e-19 2.8116727924666132e-18 1.4956994255684313e-02 1.0628222917415881e-04 9.2171823079944895e-19 1.0628222917415881e-04 -3.7541624680979273e-03  -1.1146212009463523e-02 2.4596834552373079e-18 5.9476564694266204e-19 2.4596834552373079e-18 1.5498879809213384e-02 2.4990911760047195e-05 5.9476564694266204e-19 2.4990911760047195e-05 -4.1459494185794908e-03  -1.1095546918977600e-02 2.5924061533417509e-18 6.5360231301870345e-19 2.5924061533417509e-18 1.5725486223644780e-02 -5.8961330394336397e-04 6.5360231301870345e-19 -5.8961330394336397e-04 -4.1694216581979124e-03  -1.1181079387503389e-02 2.1092858470066435e-18 2.3941027494272488e-19 2.1092858470066435e-18 1.5265406117369521e-02 -7.5159986080861057e-06 2.3941027494272488e-19 -7.5159986080861057e-06 -3.9579131712998627e-03  -1.1180983059419216e-02 2.0755762347500580e-18 2.0941598792975531e-19 2.0755762347500580e-18 1.5311321299993613e-02 -2.7305683840831855e-05 2.0941598792975531e-19 -2.7305683840831855e-05 -4.1101444177457690e-03  -1.1181030225607841e-02 1.9036931048777944e-18 3.9265678970660970e-20 1.9036931048777944e-18 1.5079779285851308e-02 -8.3315567897135988e-06 3.9265678970660970e-20 -8.3315567897135988e-06 -3.8719642083535387e-03  -1.1181036530995996e-02 1.9398258655041783e-18 7.5763926373319848e-20 1.9398258655041783e-18 1.5195423230804552e-02 -2.3541349592493036e-05 7.5763926373319848e-20 -2.3541349592493036e-05 -4.0246243741118137e-03  -1.1180998851878713e-02 1.8501774180512327e-18 -1.0942140430571741e-20 1.8501774180512327e-18 1.5033188827101534e-02 5.9731945322438709e-06 -1.0942140430571741e-20 5.9731945322438709e-06 -3.8562907415099104e-03  -1.1180979190030960e-02 1.8799123680847662e-18 1.6991795535585681e-20 1.8799123680847662e-18 1.5094804813421859e-02 -2.4087873898899024e-05 1.6991795535585681e-20 -2.4087873898899024e-05 -3.9455453558722266e-03  -1.1181021517627759e-02 1.7987240103260877e-18 -6.3508821110151685e-20 1.7987240103260877e-18 1.4993797775855838e-02 -1.5486936845346048e-05 -6.3508821110151685e-20 -1.5486936845346048e-05 -3.8398103418658645e-03  -1.1180961483018011e-02 1.7536646974231568e-18 -1.0528872166114059e-19 1.7536646974231568e-18 1.4940036115282784e-02 5.7786280488529022e-07 -1.0528872166114059e-19 5.7786280488529022e-07 -3.8128756537636256e-03  -1.1181011037874382e-02 1.7773759318875416e-18 -8.0884510112743751e-20 1.7773759318875416e-18 1.4987136058233496e-02 -8.2460197351947443e-06 -8.0884510112743751e-20 -8.2460197351947443e-06 -3.8902060368530525e-03  -1.1180964145327979e-02 2.0627282040094453e-18 2.0079168267329717e-19 2.0627282040094453e-18 1.5012017038712775e-02 -4.0117171042105320e-05 2.0079168267329717e-19 -4.0117171042105320e-05 -3.9125131767385546e-03  -1.1180996067725067e-02 1.8930130333119671e-18 4.9861141085720789e-20 1.8930130333119671e-18 1.4344926488861064e-02 -1.5053497831858300e-05 4.9861141085720789e-20 -1.5053497831858300e-05 -3.5337529199053626e-03  -1.1180999272211589e-02 1.9216100013822973e-18 8.0518596594649877e-20 1.9216100013822973e-18 1.4310127893030759e-02 -9.0574648976285994e-06 8.0518596594649877e-20 -9.0574648976285994e-06 -3.5240871090232886e-03  -1.1181071622884989e-02 2.0074428897638880e-18 1.7026444700575000e-19 2.0074428897638880e-18 1.4266497593398091e-02 1.8196718564687214e-05 1.7026444700575000e-19 1.8196718564687214e-05 -3.4965828011595296e-03  -1.1181028164218549e-02 2.0642436127705003e-18 2.0371434988801295e-19 2.0642436127705003e-18 1.4738986213785155e-02 -5.7214647722725775e-05 2.0371434988801295e-19 -5.7214647722725775e-05 -3.6991562575512415e-03  -3.5601443192645919e-08 6.1348582836834362e-19 6.9090217094867882e-19 6.1348582836834362e-19 -1.9788286476540031e-03 1.1753693874078128e-04 6.9090217094867882e-19 1.1753693874078128e-04 8.1922247586141829e-04  3.3435954047442740e-07 6.7899678903438465e-19 7.6681433124974998e-19 6.7899678903438465e-19 -2.0550216954208270e-03 1.7527932526062345e-04 7.6681433124974998e-19 1.7527932526062345e-04 8.2426886343312444e-04  -3.0879631266022525e-06 7.8002107945624007e-19 8.7293220190503652e-19 7.8002107945624007e-19 -2.0146233765033412e-03 2.2995548211887179e-04 8.7293220190503652e-19 2.2995548211887179e-04 7.9462042873252215e-04  -1.1122802626396807e-02 2.5779836960965403e-18 6.4869090401209456e-19 2.5779836960965403e-18 1.2926792750853526e-02 -6.9316491085141222e-04 6.4869090401209456e-19 -6.9316491085141222e-04 -1.8036786272700460e-03  -1.1180995663431973e-02 1.8847418649630572e-18 2.9691493858234392e-20 1.8847418649630572e-18 1.4727547266038355e-02 4.8251132804978755e-05 2.9691493858234392e-20 4.8251132804978755e-05 -3.5754196870486617e-03  -1.1181028544085439e-02 1.8805148455023329e-18 7.9525040353442175e-21 1.8805148455023329e-18 1.4802644360088121e-02 -1.2151401935053729e-04 7.9525040353442175e-21 -1.2151401935053729e-04 -3.6746452339293054e-03  -1.3976454021869001e-08 5.7361188968698927e-19 6.2529651643084322e-19 5.7361188968698927e-19 -2.1650014718146635e-03 -9.2114722385947047e-05 6.2529651643084322e-19 -9.2114722385947047e-05 1.0496766111534851e-03  -4.5914279614422508e-09 6.0681480071283333e-19 6.5644351423155212e-19 6.0681480071283333e-19 -1.8469405459766108e-03 -1.1795050087139269e-04 6.5644351423155212e-19 -1.1795050087139269e-04 7.1699893854104625e-04  4.3900401552109695e-08 6.7079646254954035e-19 7.2226250536249377e-19 6.7079646254954035e-19 -1.8906576560840005e-03 -1.3234479672172671e-04 7.2226250536249377e-19 -1.3234479672172671e-04 6.9892605850290141e-04  -4.3223742186937712e-07 7.5877199625537951e-19 8.1004992882764185e-19 7.5877199625537951e-19 -1.8803016623841020e-03 -1.6182864399308895e-04 8.1004992882764185e-19 -1.6182864399308895e-04 6.3203878745042173e-04  -1.1192222630906214e-02 2.5060034421116987e-18 8.7719359420651438e-19 2.5060034421116987e-18 1.1922165847683542e-02 1.2458561748682634e-03 8.7719359420651438e-19 1.2458561748682634e-03 -2.4728690634211719e-03  -1.1156178764028468e-02 2.5931942556864148e-18 8.8272096984103898e-19 2.5931942556864148e-18 1.1500167693447895e-02 1.1818455015090968e-03 8.8272096984103898e-19 1.1818455015090968e-03 -6.3568680745384185e-04  -1.2028216909388114e-08 6.3843425420926149e-19 6.9107850327112126e-19 6.3843425420926149e-19 -1.9835064563140164e-03 -4.7104941094902489e-05 6.9107850327112126e-19 -4.7104941094902489e-05 9.4091803585805893e-04  1.2673321222334594e-07 7.0894013787327657e-19 7.6604178232016693e-19 7.0894013787327657e-19 -2.0788996907265297e-03 -2.9717995251629764e-05 7.6604178232016693e-19 -2.9717995251629764e-05 9.9106538803697729e-04  -2.5259766408656575e-06 8.2203119506102987e-19 8.7138786686710386e-19 8.2203119506102987e-19 -2.0609958860379686e-03 -4.1405647057387509e-05 8.7138786686710386e-19 -4.1405647057387509e-05 1.0840018836262497e-03  -1.1205042982821189e-02 2.5174995894915810e-18 6.9089360673160235e-19 2.5174995894915810e-18 1.4061571755072883e-02 -7.4447750770134259e-06 6.9089360673160235e-19 -7.4447750770134259e-06 -3.5813391776196176e-03  -1.1181075603243468e-02 1.8696037310927414e-18 1.1621862670681410e-20 1.8696037310927414e-18 1.4852692394118074e-02 -3.4095339909220424e-05 1.1621862670681410e-20 -3.4095339909220424e-05 -3.8126084792771712e-03  7.0493557362925353e-09 6.2459456970021427e-19 6.7162960478854548e-19 6.2459456970021427e-19 -1.7222810066123461e-03 -4.3783663880882604e-05 6.7162960478854548e-19 -4.3783663880882604e-05 7.8741991157388151e-04  -7.1210968338689900e-08 6.9162225532617762e-19 7.3972636209059253e-19 6.9162225532617762e-19 -1.7333016208528865e-03 -2.5851196339675553e-05 7.3972636209059253e-19 -2.5851196339675553e-05 8.1489025703777699e-04  5.8767189431491002e-07 7.8836745350703498e-19 8.3706973977385346e-19 7.8836745350703498e-19 -1.6108213445301394e-03 1.9376552349500697e-05 8.3706973977385346e-19 1.9376552349500697e-05 7.7340739988136353e-04  -1.1189618789136158e-02 2.4631314633304954e-18 8.1096321026098610e-19 2.4631314633304954e-18 1.1741814012197581e-02 1.0176728320702303e-03 8.1096321026098610e-19 1.0176728320702303e-03 -2.3228886108162816e-03  -1.1181008754121723e-02 1.8777789184174300e-18 2.6837115161509958e-20 1.8777789184174300e-18 1.4631393937063383e-02 -8.4719429951124728e-06 2.6837115161509958e-20 -8.4719429951124728e-06 -3.6667520695862791e-03  -1.1181114200724070e-02 1.8941175224007424e-18 4.1746615455011324e-20 1.8941175224007424e-18 1.4699095322137885e-02 -2.3999080245443080e-06 4.1746615455011324e-20 -2.3999080245443080e-06 -3.6967758345441350e-03  2.6925782975499480e-05 9.2731976667278868e-19 1.0353205984383503e-18 9.2731976667278868e-19 -1.8976453048981459e-03 3.3154471392064544e-04 1.0353205984383503e-18 3.3154471392064544e-04 6.6901627590847568e-04  -1.1181036269383817e-02 2.0776897771849204e-18 1.9310111044417512e-19 2.0776897771849204e-18 1.4895800760543500e-02 -1.7508162929128100e-04 1.9310111044417512e-19 -1.7508162929128100e-04 -3.6583052887688016e-03  -1.1181017397221439e-02 1.7787912865705779e-18 -8.8013296789161656e-20 1.7787912865705779e-18 1.4746416729663361e-02 -8.6522636941164074e-05 -8.8013296789161656e-20 -8.6522636941164074e-05 -3.6521350940193183e-03  3.2155365337939350e-07 7.2966835041679202e-19 7.7599703934429963e-19 7.2966835041679202e-19 -1.9920165844711617e-03 -9.3773208686642333e-05 7.7599703934429963e-19 -9.3773208686642333e-05 9.7052980964233281e-04  4.2758260660836006e-06 8.7962128421303704e-19 9.2396243298923422e-19 8.7962128421303704e-19 -1.7897268269065575e-03 -2.1173144384370896e-04 9.2396243298923422e-19 -2.1173144384370896e-04 5.7603646693168216e-04  -8.4940066962499886e-05 1.2351666412389846e-18 1.2445501751674467e-18 1.2351666412389846e-18 -4.5659299538408572e-04 -6.9988714193508028e-04 1.2445501751674467e-18 -6.9988714193508028e-04 -1.2821001420333486e-03  -1.1204061304747059e-02 2.4716545669516484e-18 6.5771778335588991e-19 2.4716545669516484e-18 1.4508415278016322e-02 4.0603196900126649e-04 6.5771778335588991e-19 4.0603196900126649e-04 -3.4274938588057936e-03  -1.1181019985783266e-02 1.8287197404850642e-18 -2.9695560137069412e-20 1.8287197404850642e-18 1.4681475307665174e-02 -5.4161144704178777e-06 -2.9695560137069412e-20 -5.4161144704178777e-06 -3.5761136866430624e-03  -1.1181032039715112e-02 1.8507993588294453e-18 2.6688614834640736e-21 1.8507993588294453e-18 1.4844599266949393e-02 9.4465654242127458e-05 2.6688614834640736e-21 9.4465654242127458e-05 -3.7247727611765071e-03  -1.1181069291654104e-02 1.7498805111378775e-18 -9.7358549168719957e-20 1.7498805111378775e-18 1.4757145865446492e-02 8.5263607749684549e-05 -9.7358549168719957e-20 8.5263607749684549e-05 -3.6718566586185215e-03  -1.1188882987722162e-02 2.4021188866605963e-18 4.8866469535177492e-19 2.4021188866605963e-18 1.4717573178395022e-02 -4.2554706531534474e-04 4.8866469535177492e-19 -4.2554706531534474e-04 -3.4767069525929216e-03  -1.1183910157470353e-02 2.3858