<?xml version="1.0"?>
<VTKFile type="UnstructuredGrid"  version="0.1"  >
<UnstructuredGrid>
<Piece  NumberOfPoints="10013" NumberOfCells="19682">
<Points>
<DataArray  type="Float64"  NumberOfComponents="3"  format="ascii">3.592288698159329e-23 9.810646008487521e-07 1.049999999999998e-07  3.603353180326792e-23 9.820612008040807e-07 1.049999999999998e-07  3.600110987886184e-23 9.815685341954413e-07 1.047993641247082e-07  3.548030769489473e-23 9.77078201027437e-07 1.049999999999998e-07  3.559095251656937e-23 9.780748009827658e-07 1.049999999999998e-07  3.555374679945624e-23 9.775307370813492e-07 1.047910554060368e-07  3.536966287322008e-23 9.76081601072108e-07 1.049999999999998e-07  3.544469852931925e-23 9.765759612888196e-07 1.04818499111016e-07  3.525901805154544e-23 9.750850011167793e-07 1.049999999999998e-07  3.533867516982792e-23 9.756161250423487e-07 1.048136363891404e-07  3.51483732298708e-23 9.740884011614505e-07 1.049999999999998e-07  3.522402349789267e-23 9.745876951560852e-07 1.04817896956887e-07  3.503772840819616e-23 9.730918012061219e-07 1.049999999999998e-07  3.512012196568898e-23 9.736529527463384e-07 1.048190163505716e-07  3.492708358652152e-23 9.720952012507929e-07 1.049999999999998e-07  3.500302526439212e-23 9.725700948179852e-07 1.047908717428722e-07  3.45951491214976e-23 9.691054013848068e-07 1.049999999999998e-07  3.470579394317224e-23 9.701020013401356e-07 1.049999999999998e-07  3.466681475120761e-23 9.695425370328952e-07 1.047916290415738e-07  3.448450429982296e-23 9.68108801429478e-07 1.049999999999998e-07  3.457246893502023e-23 9.687045173362714e-07 1.048034009102008e-07  3.437385947814832e-23 9.671122014741493e-07 1.049999999999998e-07  3.444929484652201e-23 9.675872904650248e-07 1.047956275970789e-07  3.404192501312439e-23 9.641224016081629e-07 1.049999999999998e-07  3.415256983479904e-23 9.651190015634917e-07 1.049999999999998e-07  3.411990835931877e-23 9.646229792911238e-07 1.047981661452367e-07  3.393128019144975e-23 9.631258016528342e-07 1.049999999999998e-07  3.400909310181952e-23 9.636435519419924e-07 1.048168739008664e-07  3.382063536977511e-23 9.621292016975054e-07 1.049999999999998e-07  3.390284342683843e-23 9.626730665233525e-07 1.048034004755326e-07  3.472504555695692e-23 9.699868555469134e-07 1.047114510854438e-07  3.475195920906633e-23 9.703105513156404e-07 1.047927302269486e-07  3.542163426187476e-23 9.762733205283146e-07 1.047236028030481e-07  3.5199749788386e-23 9.742724702881327e-07 1.047213102271127e-07  3.409069584163345e-23 9.642774062792401e-07 1.047157161008772e-07  3.470436889957664e-23 9.696857411145083e-07 1.045965754259849e-07  3.560419001472548e-23 9.779311217809755e-07 1.047370880146833e-07  3.476111528544695e-23 9.702173459391149e-07 1.046170542460713e-07  3.475975407623999e-23 9.700873141718691e-07 1.044992831613798e-07  3.46249752387102e-23 9.691100502261235e-07 1.047359990605874e-07  3.563441649565979e-23 9.782548050403879e-07 1.047885153375507e-07  3.460910635931423e-23 9.688464613329619e-07 1.046153443260948e-07  3.538410665583063e-23 9.759288556841955e-07 1.047171565841219e-07  3.516191930353986e-23 9.739533996817245e-07 1.047429863356171e-07  3.405426766927734e-23 9.63966129099129e-07 1.047325547276636e-07  3.559410030508016e-23 9.776701542887668e-07 1.045670005476725e-07  3.458497207104551e-23 9.68597616359204e-07 1.045838816956446e-07  3.546560965208359e-23 9.765661381825099e-07 1.046203253553274e-07  3.52456643603523e-23 9.745771824403258e-07 1.046124606809093e-07  3.413066861999425e-23 9.645163745827855e-07 1.045946416249613e-07  3.563885691566024e-23 9.781295611639474e-07 1.046232757133914e-07  3.562989378734708e-23 9.779365449701634e-07 1.045109922022698e-07  3.464632242201008e-23 9.690551484048681e-07 1.044888189058226e-07  3.542183580030863e-23 9.761047165580378e-07 1.045531835359399e-07  3.519780013553665e-23 9.74104913423665e-07 1.045713142743367e-07  3.40900545149644e-23 9.641200170365576e-07 1.045641034152902e-07  3.596291124235434e-23 9.811810918506783e-07 1.047559845102276e-07  3.551970347465684e-23 9.77171742687695e-07 1.047386960221447e-07  3.531255945496604e-23 9.752771564553909e-07 1.047098972496236e-07  3.509959228161156e-23 9.733422435130253e-07 1.046932220723808e-07  3.496819881303688e-23 9.722000242912977e-07 1.047344900028768e-07  3.453761306214084e-23 9.683001851249175e-07 1.047130224910696e-07  3.441520437934899e-23 9.672234227436988e-07 1.047388195062675e-07  3.398026583574447e-23 9.633056903992459e-07 1.047386652876273e-07  3.387881580186633e-23 9.623559870022633e-07 1.047027425601853e-07  3.555956174083125e-23 9.773529229615946e-07 1.045608649506629e-07  3.605121382821724e-23 9.819530769765495e-07 1.047326106505228e-07  3.474142802413121e-23 9.698831598709384e-07 1.044601952633456e-07  3.548915054386426e-23 9.768688601875683e-07 1.04711009857483e-07  3.527065681093335e-23 9.748996655052606e-07 1.047098317635962e-07  3.505867785365082e-23 9.729846352854989e-07 1.047041382498906e-07  3.449978680065472e-23 9.679494892722031e-07 1.047030353126225e-07  3.416095332983821e-23 9.649258316315163e-07 1.047313182577555e-07  3.394795878200644e-23 9.629825171638004e-07 1.047064881225339e-07  3.607955305626421e-23 9.822543978171034e-07 1.047786744173321e-07  3.514653363247178e-23 9.736861239297744e-07 1.046142923886451e-07  3.420129447236713e-23 9.653529810568777e-07 1.047951069741951e-07  3.41892216930401e-23 9.651524328431194e-07 1.047033006893938e-07  3.403532826015499e-23 9.63651236179281e-07 1.045882528395477e-07  3.383908301692458e-23 9.619867605417749e-07 1.04691397210613e-07  3.595455120155024e-23 9.810025082541916e-07 1.046527014670412e-07  3.592408821904435e-23 9.808805735833384e-07 1.048051529495123e-07  3.495899236431874e-23 9.72011884853055e-07 1.04629274882667e-07  3.49337920328919e-23 9.719540917402183e-07 1.047984661762773e-07  3.44067440505752e-23 9.670348415314978e-07 1.046264421610925e-07  3.437659456180231e-23 9.669195057849943e-07 1.047826688673951e-07  3.598575768627642e-23 9.811613259684814e-07 1.045304361553623e-07  3.608483926387671e-23 9.821336546392934e-07 1.046103173142544e-07  3.607822362680848e-23 9.819625998648406e-07 1.044988509010722e-07  3.418963950397357e-23 9.649877321794167e-07 1.045348367193625e-07  3.531263687462763e-23 9.750832534800753e-07 1.045152969399898e-07  3.51780597285526e-23 9.739035945358915e-07 1.045478011656382e-07  3.443927325695877e-23 9.672118856662073e-07 1.045104892523068e-07  3.498770988929208e-23 9.721572702060604e-07 1.045159957661346e-07  3.388220596351564e-23 9.622044365368568e-07 1.045206562332976e-07  3.448469248935032e-23 9.676985150786376e-07 1.045880185885888e-07  3.453787919068134e-23 9.68124617086897e-07 1.045350573802575e-07  3.604336288849505e-23 9.817139159975344e-07 1.045641646499225e-07  3.504328886912709e-23 9.727074022623536e-07 1.045655168766785e-07  3.415912576246099e-23 9.647576676855939e-07 1.045796155753512e-07  3.392916066332631e-23 9.62688671844056e-07 1.045819612033557e-07  3.47872399881693e-23 9.704209449018762e-07 1.045853428059414e-07  3.60078538530355e-23 9.814094743827864e-07 1.045795599929022e-07  3.536391479637724e-23 9.756329721265103e-07 1.046031451278571e-07  3.500817775403954e-23 9.724025063575533e-07 1.04576873781528e-07  3.445812559480781e-23 9.674464317210355e-07 1.04575228543711e-07  3.552999273140349e-23 9.770527973057568e-07 1.045270732545062e-07  3.407108162627688e-23 9.639117985810703e-07 1.045267775486495e-07  3.540424697046129e-23 9.75880404126165e-07 1.044872971991599e-07  3.496890467418787e-23 9.719325569936555e-07 1.044606648732016e-07  3.398337636158879e-23 9.63159382383657e-07 1.045643401459716e-07  3.467722078919026e-23 9.693971362994143e-07 1.045524990505307e-07  3.401125558308839e-23 9.633710880469863e-07 1.045249321061869e-07  3.457077089372285e-23 9.683562860635808e-07 1.044704642338185e-07  3.535010898867621e-23 9.753830101869605e-07 1.044775348491431e-07  3.550599862561734e-23 9.767871136163726e-07 1.044775092568772e-07  3.528452419012669e-23 9.748026900779776e-07 1.044879500887778e-07  3.478925483043967e-23 9.70288596290451e-07 1.044348461087201e-07  3.596606017872648e-23 9.80952314364502e-07 1.04498843926707e-07  3.442024175795391e-23 9.669817363600405e-07 1.04451760449793e-07  3.462519935779412e-23 9.687886036964364e-07 1.044125338456547e-07  3.514067794913499e-23 9.734762390189864e-07 1.044571507844443e-07  3.391205579802825e-23 9.624433018723308e-07 1.044906581615956e-07  3.566550536221939e-23 9.781844833562408e-07 1.044381700376973e-07  3.545482657340379e-23 9.763413159936824e-07 1.044926285047485e-07  3.523550551198601e-23 9.743208069093485e-07 1.044475879213658e-07  3.412709647484308e-23 9.643232565420508e-07 1.044336986073701e-07  3.593437170642465e-23 9.807880148102179e-07 1.046199687565237e-07  3.438715877103752e-23 9.668338971474774e-07 1.046019062923278e-07  3.510558880628656e-23 9.731829684526702e-07 1.04479935119442e-07  3.493375744286201e-23 9.717925294336267e-07 1.046372154289773e-07  3.422421272598176e-23 9.653732138022548e-07 1.046089104426945e-07  3.507776278238997e-23 9.729331620752401e-07 1.044807632837156e-07  3.611103143384953e-23 9.821866796437376e-07 1.044274242248393e-07  3.422019297605939e-23 9.652068679207165e-07 1.044787712496611e-07  3.45241348828532e-23 9.678876236172214e-07 1.044218616298084e-07  3.397250271135501e-23 9.629522508708527e-07 1.044551497674493e-07  3.386937210736081e-23 9.619462885632335e-07 1.043781053592677e-07  3.56656836818282e-23 9.783372660634518e-07 1.045893465846606e-07  3.407576437607725e-23 9.63784167791323e-07 1.043569682983901e-07  3.500002227563912e-23 9.720691681550337e-07 1.043169935979786e-07  3.517823767159694e-23 9.737535152847536e-07 1.043961191460439e-07  3.456467498907108e-23 9.681485196569056e-07 1.043176048549798e-07  3.559805543419781e-23 9.774956114738601e-07 1.043568330967248e-07  3.538868955566219e-23 9.756408728963831e-07 1.04387894704362e-07  3.60786917602935e-23 9.818066762968541e-07 1.043387107615082e-07  3.472286662311435e-23 9.696550308750345
[...]
<PointData  Tensors="f_58"> 
<DataArray  type="Float64"  Name="f_58"  NumberOfComponents="9" format="ascii">-1.8732590368081541e-04 -1.4097101164054018e-18 -1.3188987065428699e-18 -1.4097101164054018e-18 -3.3052254107984440e-03 1.0993764237110757e-04 -1.3188987065428699e-18 1.0993764237110757e-04 1.5145359617192058e-03  2.4033471506067461e-05 -1.1235510097201424e-18 -1.0497003641757005e-18 -1.1235510097201424e-18 -2.5887569180456553e-03 -2.7169486906990987e-05 -1.0497003641757005e-18 -2.7169486906990987e-05 1.2521099282231185e-03  3.9596110232961314e-05 -1.2055989499119795e-18 -1.1117682401106745e-18 -1.2055989499119795e-18 -2.4426459881562571e-03 1.9660142575902181e-04 -1.1117682401106745e-18 1.9660142575902181e-04 1.2247372613525161e-03  -1.1159960652984961e-02 6.1588817134582244e-19 -1.2503686967642194e-18 6.1588817134582244e-19 1.5343288339280987e-02 3.2289855671604963e-08 -1.2503686967642194e-18 3.2289855671604963e-08 -4.0436501223417255e-03  -1.1351203322179563e-02 5.0450102606661726e-19 -1.3986545535898693e-18 5.0450102606661726e-19 1.6089132467362793e-02 9.9457343367454336e-05 -1.3986545535898693e-18 9.9457343367454336e-05 -4.3084213875046367e-03  -1.1142741923860529e-02 5.4700079167812594e-19 -1.3081829008314791e-18 5.4700079167812594e-19 1.5254789986308536e-02 5.8795668434288287e-06 -1.3081829008314791e-18 5.8795668434288287e-06 -4.1084963551807283e-03  -1.1183083996122417e-02 7.2749190587772095e-19 -1.1423121337369661e-18 7.2749190587772095e-19 1.5346174788790225e-02 6.7831673320476924e-06 -1.1423121337369661e-18 6.7831673320476924e-06 -4.0153813421124913e-03  -1.1186461853423642e-02 6.8029296181597482e-19 -1.1828598426043898e-18 6.8029296181597482e-19 1.5456200817517696e-02 2.7446169793650681e-05 -1.1828598426043898e-18 2.7446169793650681e-05 -4.2106550818832890e-03  -1.1180794361691790e-02 8.1460305852732655e-19 -1.0534639044495680e-18 8.1460305852732655e-19 1.5273775849731833e-02 1.5427313823585814e-06 -1.0534639044495680e-18 1.5427313823585814e-06 -3.9801763968878258e-03  -1.1180510722504332e-02 7.7332027590542666e-19 -1.0869946355632907e-18 7.7332027590542666e-19 1.5342297653259573e-02 3.7193994987712516e-05 -1.0869946355632907e-18 3.7193994987712516e-05 -4.1164769399641751e-03  -1.1181004456933137e-02 8.8732525572213690e-19 -9.8028201770854645e-19 8.8732525572213690e-19 1.5225717009820517e-02 -3.0187603758911923e-06 -9.8028201770854645e-19 -3.0187603758911923e-06 -3.9499417616556589e-03  -1.1181078297367506e-02 8.5390869574476929e-19 -1.0064328788803575e-18 8.5390869574476929e-19 1.5281504598320554e-02 2.9173252683386662e-05 -1.0064328788803575e-18 2.9173252683386662e-05 -4.0723801986327687e-03  -1.1181006539006583e-02 9.4958719263063166e-19 -9.1510747503654523e-19 9.4958719263063166e-19 1.5163459827567021e-02 2.4203301006598961e-06 -9.1510747503654523e-19 2.4203301006598961e-06 -3.9292794035136504e-03  -1.1181025385550524e-02 9.1819829664244309e-19 -9.4101806029784604e-19 9.1819829664244309e-19 1.5232903997108726e-02 3.6859943511175927e-05 -9.4101806029784604e-19 3.6859943511175927e-05 -4.0285705119237417e-03  -1.1180963890557991e-02 1.0056733202346491e-18 -8.5873679034571030e-19 1.0056733202346491e-18 1.5128330497372252e-02 -8.6884909136023297e-06 -8.5873679034571030e-19 -8.6884909136023297e-06 -3.9214085432137972e-03  -1.1181001921999315e-02 9.7502456663709980e-19 -8.8375461806155010e-19 9.7502456663709980e-19 1.5092669451684831e-02 2.5075854901711058e-05 -8.8375461806155010e-19 2.5075854901711058e-05 -3.9197326115843843e-03  -1.1180980105471942e-02 1.1409090978701581e-18 -7.1841553259609902e-19 1.1409090978701581e-18 1.4965804001193366e-02 -1.4067399490310027e-06 -7.1841553259609902e-19 -1.4067399490310027e-06 -3.8359628403218222e-03  -1.1181040763985997e-02 1.1002468899313129e-18 -7.5819547195802621e-19 1.1002468899313129e-18 1.5011717952431216e-02 1.6824727738866141e-05 -7.5819547195802621e-19 1.6824727738866141e-05 -3.8614287109494639e-03  -1.1180965637534023e-02 1.1186570964081612e-18 -7.3917195776667127e-19 1.1186570964081612e-18 1.4914879160533950e-02 -9.3781928751585518e-06 -7.3917195776667127e-19 -9.3781928751585518e-06 -3.8278938769531496e-03  -1.1181022413414376e-02 1.1795741202014298e-18 -6.7751875114320943e-19 1.1795741202014298e-18 1.4914630861576456e-02 2.8187045068183950e-06 -6.7751875114320943e-19 2.8187045068183950e-06 -3.8166272258725203e-03  -1.1181056714827105e-02 1.1530707996624597e-18 -6.9858774174550412e-19 1.1530707996624597e-18 1.4898654414589797e-02 4.1300098684822244e-05 -6.9858774174550412e-19 4.1300098684822244e-05 -3.8216527784654449e-03  -1.1180974165359962e-02 1.2160949600843800e-18 -6.4125821145798794e-19 1.2160949600843800e-18 1.4871848844530406e-02 -3.1100574976076834e-06 -6.4125821145798794e-19 -3.1100574976076834e-06 -3.7809170852334279e-03  -1.1181009912583369e-02 1.1978326973844915e-18 -6.5628626614451519e-19 1.1978326973844915e-18 1.4870752043335652e-02 8.0548024852282991e-06 -6.5628626614451519e-19 8.0548024852282991e-06 -3.8158243705307651e-03  -1.1180982151947542e-02 1.3195558268953953e-18 -5.3352072760475628e-19 1.3195558268953953e-18 1.4759085827514274e-02 3.6133939572707312e-06 -5.3352072760475628e-19 3.6133939572707312e-06 -3.7317638221540743e-03  -1.1181007270535821e-02 1.2873025011153713e-18 -5.6657804533663692e-19 1.2873025011153713e-18 1.4791647268781676e-02 3.3291747372718556e-06 -5.6657804533663692e-19 3.3291747372718556e-06 -3.7504605076205595e-03  -1.1180990680894266e-02 1.3031149421367649e-18 -5.4872058856848147e-19 1.3031149421367649e-18 1.4770610659966781e-02 2.0631426714078706e-06 -5.4872058856848147e-19 2.0631426714078706e-06 -3.7687625122693629e-03  -1.1180917169490972e-02 1.3525246781881947e-18 -4.9977495652284834e-19 1.3525246781881947e-18 1.4726502914455595e-02 2.5533028910895443e-06 -4.9977495652284834e-19 2.5533028910895443e-06 -3.7151668690059135e-03  -1.1181056586332167e-02 1.3363379549699625e-18 -5.1378447572228985e-19 1.3363379549699625e-18 1.4762236582950700e-02 1.0637632043035691e-05 -5.1378447572228985e-19 1.0637632043035691e-05 -3.7742317337089008e-03  -1.1181848353342034e-02 1.3841487091559581e-18 -4.6722986313955531e-19 1.3841487091559581e-18 1.4697890199730073e-02 3.0055403145952522e-06 -4.6722986313955531e-19 3.0055403145952522e-06 -3.7041044325414321e-03  -1.1180685255977560e-02 1.3671204099352322e-18 -4.8140669866659430e-19 1.3671204099352322e-18 1.4721372639794591e-02 1.4970921501994979e-05 -4.8140669866659430e-19 1.4970921501994979e-05 -3.7526973188148961e-03  -1.1181039501654989e-02 1.0890450118458581e-18 -7.6141573673058127e-19 1.0890450118458581e-18 1.4751835043156468e-02 7.3622519867002156e-05 -7.6141573673058127e-19 7.3622519867002156e-05 -3.6317316557241495e-03  -1.1181021917587346e-02 1.0819352022360496e-18 -7.9175252411194415e-19 1.0819352022360496e-18 1.4830515394536281e-02 -1.1964429214552729e-04 -7.9175252411194415e-19 -1.1964429214552729e-04 -3.6784904292462904e-03  -1.1179659268995029e-02 6.8348098562677606e-19 -1.2030661066615182e-18 6.8348098562677606e-19 1.4802922166890614e-02 -2.0330573163343784e-04 -1.2030661066615182e-18 -2.0330573163343784e-04 -3.5838410407643189e-03  -1.1181037681255080e-02 8.5780441047092785e-19 -1.0207034534537735e-18 8.5780441047092785e-19 1.4872593055826651e-02 -1.3680093175485352e-04 -1.0207034534537735e-18 -1.3680093175485352e-04 -3.6680810179101895e-03  -1.1181016093673101e-02 1.3061462781268278e-18 -5.5274667267988317e-19 1.3061462781268278e-18 1.4579274563148168e-02 -6.1784696245436959e-05 -5.5274667267988317e-19 -6.1784696245436959e-05 -3.5780377406922099e-03  -1.1180963184414233e-02 1.1048081414073377e-18 -7.4450278990460638e-19 1.1048081414073377e-18 1.4757643698877368e-02 2.2855440812002091e-05 -7.4450278990460638e-19 2.2855440812002091e-05 -3.7596351014859567e-03  -1.1164556628746464e-02 4.3448159595529827e-19 -1.4073351966241136e-18 4.3448159595529827e-19 1.4484542705055998e-02 2.6105973714665487e-04 -1.4073351966241136e-18 2.6105973714665487e-04 -3.1123148052696480e-03  -1.1181016473753396e-02 1.0750117008079508e-18 -7.7437166315702517e-19 1.0750117008079508e-18 1.4666421349357431e-02 8.6775516247011142e-06 -7.7437166315702517e-19 8.6775516247011142e-06 -3.6955702783395212e-03  -1.1180948914945144e-02 1.0750008835545392e-18 -7.7572975382508846e-19 1.0750008835545392e-18 1.4597561798643684e-02 -9.7034319461450745e-06 -7.7572975382508846e-19 -9.7034319461450745e-06 -3.6390672569669934e-03  -1.1181021893360111e-02 1.1270982915116878e-18 -7.3183717031272440e-19 1.1270982915116878e-18 1.4718183147722542e-02 -2.3124314200680190e-06 -7.3183717031272440e-19 -2.3124314200680190e-06 -3.5972475845711671e-03  -1.1063160255286236e-02 3.9233976143122648e-19 -1.5654280551595470e-18 3.9233976143122648e-19 1.5012350912973918e-02 -6.9217645741123537e-04 -1.5654280551595470e-18 -6.9217645741123537e-04 -3.2550147012673320e-03  -1.1181025599543008e-02 1.1343933910929303e-18 -7.0805746020865826e-19 1.1343933910929303e-18 1.4675229386859225e-02 6.0484994319197134e-05 -7.0805746020865826e-19 6.0484994319197134e-05 -3.7256667278273621e-03  -1.1180860343064255e-02 7.0724898901468129e-19 -1.1397268975923355e-18 7.0724898901468129e-19 1.4748509594338722e-02 1.5411341776532889e-04 -1.1397268975923355e-18 1.5411341776532889e-04 -3.5298437861960553e-03  -1.1181057211123904e-02 8.7207550926098569e-19 -9.7791779156175965e-19 8.7207550926098569e-19 1.4811374994531128e-02 1.2260663668932974e-04 -9.7791779156175965e-19 1.2260663668932974e-04 -3.6017595825104270e-03  -1.1181021388974794e-02 1.3131348153011057e-18 -5.2989629953018218e-19 1.3131348153011057e-18 1.4554881540287640e-02 6.9485055073917787e-05 -5.2989629953018218e-19 6.9485055073917787e-05 -3.5768572401405040e-03  -1.1191688389277572e-02 4.8188124835736320e-19 -1.3543351967502539e-18 4.8188124835736320e-19 1.4552036903398886e-02 8.1143942276044171e-05 -1.3543351967502539e-18 8.1143942276044171e-05 -3.6947910055703521e-03  -1.1181022682921742e-02 1.1447150168234121e-18 -7.0457842339870680e-19 1.1447150168234121e-18 1.4702408356892425e-02 1.7160824530544283e-05 -7.0457842339870680e-19 1.7160824530544283e-05 -3.7162230805424831e-03  -1.1179771313004168e-02 6.5091860603376623e-19 -1.2024663191977341e-18 6.5091860603376623e-19 1.4883424539248787e-02 -1.2318959439184901e-05 -1.2024663191977341e-18 -1.2318959439184901e-05 -3.8799904495511080e-03  -1.1181008044220071e-02 8.3525928856223406e-19 -1.0194380425846668e-18 8.3525928856223406e-19 1.4910430231873330e-02 3.0788214992205685e-06 -1.0194380425846668e-18 3.0788214992205685e-06 -3.8550318395615788e-03  -1.1181031923811440e-02 1.2956591743072785e-18 -5.5140821117660895e-19 1.2956591743072785e-18 1.4581938756080819e-02 3.1485593473215759e-06 -5.5140821117660895e-19 3.1485593473215759e-06 -3.6638975290324903e-03  -1.1206559627614899e-02 3.6268784516976875e-19 -1.4687341058501531e-18 3.6268784516976875e-19 1.4030262611369498e-02 5.5193627189621600e-05 -1.4687341058501531e-18 5.5193627189621600e-05 -3.3410297475343969e-03  -1.1179182193084409e-02 3.8763308383391441e-19 -1.4469493369838122e-18 3.8763308383391441e-19 1.3925779807161622e-02 3.7164832512080498e-05 -1.4469493369838122e-18 3.7164832512080498e-05 -3.1609157012044320e-03  -1.1180982303028065e-02 1.1213381074165805e-18 -7.2776117935667108e-19 1.1213381074165805e-18 1.4585073736514230e-02 1.3217464437302096e-05 -7.2776117935667108e-19 1.3217464437302096e-05 -3.6101919781640350e-03  -1.1181256974617838e-02 6.8139502020662743e-19 -1.1641611638116819e-18 6.8139502020662743e-19 1.4520237854435118e-02 -2.0444061317908172e-05 -1.1641611638116819e-18 -2.0444061317908172e-05 -3.6770553557588597e-03  -1.1181084392639066e-02 8.5409588335885878e-19 -9.9355325689745227e-19 8.5409588335885878e-19 1.4651483160435273e-02 1.1926708698102619e-05 -9.9355325689745227e-19 1.1926708698102619e-05 -3.7055106100368387e-03  -1.1181099890875573e-02 1.3033847177532134e-18 -5.3980797318775360e-19 1.3033847177532134e-18 1.4466001076525367e-02 1.2344350861581526e-05 -5.3980797318775360e-19 1.2344350861581526e-05 -3.5995044921802496e-03  1.7837421805909271e-05 -1.2390005780745050e-18 -1.1150216199324961e-18 -1.2390005780745050e-18 -7.7745447047338195e-04 3.5006046795810409e-04 -1.1150216199324961e-18 3.5006046795810409e-04 -7.2015610875447961e-04  -1.1194386688673954e-02 5.7141039858152606e-19 -1.3248931679333199e-18 5.7141039858152606e-19 1.4708380545275323e-02 -2.3461702373105131e-04 -1.3248931679333199e-18 -2.3461702373105131e-04 -3.4056198279359294e-03  -1.1181156327108130e-02 7.7785159758731643e-19 -1.1007166017312330e-18 7.7785159758731643e-19 1.4842565680257028e-02 -1.4139431146264865e-04 -1.1007166017312330e-18 -1.4139431146264865e-04 -3.6463907876323831e-03  -1.1181050061958209e-02 9.2059152340868435e-19 -9.5330732960907315e-19 9.2059152340868435e-19 1.4863651392613817e-02 -1.2412841864051937e-04 -9.5330732960907315e-19 -1.2412841864051937e-04 -3.7168476490869245e-03  -1.1181026647278188e-02 9.8545918972578728e-19 -8.8948001054725857e-19 9.8545918972578728e-19 1.4816951806779279e-02 -1.1367380431465457e-04 -8.8948001054725857e-19 -1.1367380431465457e-04 -3.6304507751976660e-03  -1.1180984679661530e-02 1.1632796920313143e-18 -7.0112765517545753e-19 1.1632796920313143e-18 1.4722812972542448e-02 -7.5995608068974370e-05 -7.0112765517545753e-19 -7.5995608068974370e-05 -3.6505966114143171e-03  -1.1181014682530696e-02 1.2026060233035748e-18 -6.5980551542639991e-19 1.2026060233035748e-18 1.4666381785626615e-02 -5.7922012162831057e-05 -6.5980551542639991e-19 -5.7922012162831057e-05 -3.5940315276773776e-03  -1.1181048823787339e-02 1.3381100101971450e-18 -5.1951413248849840e-19 1.3381100101971450e-18 1.4560271224663269e-02 -6.2538034300378486e-05 -5.1951413248849840e-19 -6.2538034300378486e-05 -3.5834633536667290e-03  -1.1181792448355925e-02 1.3698214046158311e-18 -4.8671005301225595e-19 1.3698214046158311e-18 1.4534035805610348e-02 -6.2023841272244683e-05 -4.8671005301225595e-19 -6.2023841272244683e-05 -3.5773708617682959e-03  -1.1184933301889710e-02 5.3038040844708236e-19 -1.3205329430436962e-18 5.3038040844708236e-19 1.4483750648955429e-02 -5.7560896831708334e-05 -1.3205329430436962e-18 -5.7560896831708334e-05 -3.6256483261240830e-03  -1.4263898437879679e-05 -1.1008214475434571e-18 -1.0657194499563998e-18 -1.1008214475434571e-18 -1.8270442489020028e-03 -3.1008738375131974e-04 -1.0657194499563998e-18 -3.1008738375131974e-04 5.4600031151411240e-04  -1.1181055831657750e-02 1.0815421744158426e-18 -7.6217815370528658e-19 1.0815421744158426e-18 1.4581344072588414e-02 4.9632448000848253e-05 -7.6217815370528658e-19 4.9632448000848253e-05 -3.6306781090975422e-03  -1.1182991298501544e-02 5.9892710294234437e-19 -1.2309057675968889e-18 5.9892710294234437e-19 1.4748907401635368e-02 2.7997346157623745e-04 -1.2309057675968889e-18 2.7997346157623745e-04 -3.5916045398405117e-03  -1.1181051274998140e-02 8.0067028746369184e-19 -1.0465475963507504e-18 8.0067028746369184e-19 1.4814029092113648e-02 1.4050562187868722e-04 -1.0465475963507504e-18 1.4050562187868722e-04 -3.6186013054783288e-03  -1.1181028103524617e-02 9.3416448085180457e-19 -9.1617769435649664e-19 9.3416448085180457e-19 1.4793927969330498e-02 9.6160352416064336e-05 -9.1617769435649664e-19 9.6160352416064336e-05 -3.6308621484446965e-03  -1.1181017799552998e-02 1.1701691470166108e-18 -6.7633241789125797e-19 1.1701691470166108e-18 1.4660011455472251e-02 7.8297542061050044e-05 -6.7633241789125797e-19 7.8297542061050044e-05 -3.6018369318258671e-03  -1.1181038088554819e-02 1.2809699517896394e-18 -5.6070964403208454e-19 1.2809699517896394e-18 1.4619531700096004e-02 9.8676970583191605e-05 -5.6070964403208454e-19 9.8676970583191605e-05 -3.6075037701246157e-03  -1.1181159506396220e-02 1.3443643347689307e-18 -4.9888392407577818e-19 1.3443643347689307e-18 1.4516276619231848e-02 6.2270821698399168e-05 -4.9888392407577818e-19 6.2270821698399168e-05 -3.5490453018875816e-03  -2.7969669738191931e-06 -1.0737458630034287e-18 -9.6449922455303713e-19 -1.0737458630034287e-18 -1.9598400699395021e-03 3.4594692063476777e-04 -9.6449922455303713e-19 3.4594692063476777e-04 6.7812749639773406e-04  -1.1181023872828277e-02 8.9461591501643543e-19 -9.5439461636243399e-19 8.9461591501643543e-19 1.4912197995981849e-02 5.9754239612168273e-05 -9.5439461636243399e-19 5.9754239612168273e-05 -3.8459247019265166e-03  -1.1181000016685313e-02 1.2755200455702555e-18 -5.9033568366757771e-19 1.2755200455702555e-18 1.4718727512721769e-02 -9.9854583954233909e-05 -5.9033568366757771e-19 -9.9854583954233909e-05 -3.6681680463125583e-03  -1.1181025627490810e-02 1.2717603686342678e-18 -5.8132351261521460e-19 1.2717603686342678e-18 1.4532519421760962e-02 -1.4612003683963997e-05 -5.8132351261521460e-19 -1.4612003683963997e-05 -3.5416031757885191e-03  -1.1181007951665408e-02 1.3256703547298899e-18 -5.2005729507241735e-19 1.3256703547298899e-18 1.4579683790805429e-02 1.2310318892907078e-05 -5.2005729507241735e-19 1.2310318892907078e-05 -3.6674056328408256e-03  -1.1178968690109092e-02 1.3762348519530519e-18 -4.6654126494898798e-19 1.3762348519530519e-18 1.4485949367559609e-02 5.1007536218932593e-05 -4.6654126494898798e-19 5.1007536218932593e-05 -3.5453683417063448e-03  -2.5310294818433856e-05 -1.2014217193100912e-18 -1.3002399114304454e-18 -1.2014217193100912e-18 -1.3024648444740958e-04 -8.1528038616504020e-04 -1.3002399114304454e-18 -8.1528038616504020e-04 2.2921541532267621e-04  1.3183028310710546e-04 -1.2862533001964433e-18 -1.3837702301631413e-18 -1.2862533001964433e-18 -1.3097392950293460e-04 -1.4188896949469145e-03 -1.3837702301631413e-18 -1.4188896949469145e-03 -6.8643605632851879e-04  -1.1181107837931440e-02 9.8250575822142925e-19 -8.6469585093316679e-19 9.8250575822142925e-19 1.4708609639246247e-02 5.1940188033936004e-05 -8.6469585093316679e-19 5.1940188033936004e-05 -3.6907190243709370e-03  -1.1181040941417435e-02 9.9419069146252834e-19 -8.4991301877211641e-19 9.9419069146252834e-19 1.4854687184002312e-02 1.6521959953155730e-04 -8.4991301877211641e-19 1.6521959953155730e-04 -3.6659107387921066e-03  -1.1181017844570759e-02 1.2020711187252856e-18 -6.4257779135068622e-19 1.2020711187252856e-18 1.4584479157602434e-02 2.9820993736499297e-05 -6.4257779135068622e-19 2.9820993736499297e-05 -3.6566322830799483e-03  -1.1181028883919980e-02 1.2124544813612558e-18 -6.3181662191736140e-19 1.2124544813612558e-18 1.4685499431329739e-02 9.6933995602007969e-05 -6.3181662191736140e-19 9.6933995602007969e-05 -3.6302545939817118e-03  1.0961001550621286e-06 -1.1819259822999493e-18 -1.2069812136400971e-18 -1.1819259822999493e-18 -1.3521690392275792e-04 -4.0485108222771359e-04 -1.2069812136400971e-18 -4.0485108222771359e-04 -2.2093813810947078e-04  3.2893997334030411e-06 -1.0573305347240725e-18 -1.0125162516682409e-18 -1.0573305347240725e-18 -1.4499276851301390e-03 2.9833978645345311e-05 -1.0125162516682409e-18 2.9833978645345311e-05 7.0887208800453209e-04  3.1774876681922005e-06 -1.0566539136763155e-18 -1.0269945430397370e-18 -1.0566539136763155e-18 -1.2246759930460774e-03 -1.0514504827804076e-04 -1.0269945430397370e-18 -1.0514504827804076e-04 4.8644514963586778e-04  -1.1181008166837786e-02 1.2729382417770876e-18 -5.7012221234677303e-19 1.2729382417770876e-18 1.4502355036496420e-02 2.7869978899288242e-05 -5.7012221234677303e-19 2.7869978899288242e-05 -3.6070059147199087e-03  -1.1181038773503901e-02 7.7476439851924951e-19 -1.0702224902921262e-18 7.7476439851924951e-19 1.4554501172972840e-02 9.0266511600273348e-06 -1.0702224902921262e-18 9.0266511600273348e-06 -3.6621963578457161e-03  -1.1180984738259608e-02 8.6554242916440131e-19 -9.8248825591704394e-19 8.6554242916440131e-19 1.4688978990313611e-02 5.6482643706661588e-05 -9.8248825591704394e-19 5.6482643706661588e-05 -3.6468219606131053e-03  -1.1181016379578237e-02 1.1956676373545532e-18 -6.5223340182823442e-19 1.1956676373545532e-18 1.4541004897746537e-02 6.6738647006669046e-06 -6.5223340182823442e-19 6.6738647006669046e-06 -3.6008642015784567e-03  -1.1180974128364543e-02 9.7639114079181007e-19 -8.7551485516872068e-19 9.7639114079181007e-19 1.