<?xml version="1.0"?>
<VTKFile type="UnstructuredGrid"  version="0.1"  >
<UnstructuredGrid>
<Piece  NumberOfPoints="10016" NumberOfCells="19520">
<Points>
<DataArray  type="Float64"  NumberOfComponents="3"  format="ascii">4.965882134545785e-23 9.999999999999972e-07 2.131013858730117e-10  4.967082817620118e-23 9.999999999999972e-07 1.049534689498666e-10  4.965098371686593e-23 9.998969993079911e-07 1.806957762789407e-10  4.964683486453523e-23 9.999999999999972e-07 3.210660079061538e-10  4.963928094281055e-23 9.998928151283132e-07 2.819208143511568e-10  4.963518268876098e-23 9.999999999999972e-07 4.260194768560998e-10  4.96274502693978e-23 9.998912733244546e-07 3.869402432389603e-10  4.96235103204718e-23 9.999999999999972e-07 5.31154823811502e-10  4.961646649818389e-23 9.998950814042031e-07 4.896813388795724e-10  4.961134681207764e-23 9.999999999999972e-07 6.407139675543703e-10  4.960551587706572e-23 9.998984968509009e-07 5.917312119519161e-10  4.959804858519994e-23 9.999999999999972e-07 7.604937467765757e-10  4.959397099627827e-23 9.999008892025507e-07 6.981106052264079e-10  4.958631038097335e-23 9.999999999999972e-07 8.662220911382774e-10  4.958168164519997e-23 9.998997843553723e-07 8.076983919218066e-10  4.957439975359272e-23 9.999999999999972e-07 9.73503485204662e-10  4.956944998760152e-23 9.999002325489919e-07 9.183195627464037e-10  4.956265137445577e-23 9.999999999999972e-07 1.079323477011368e-09  4.955701160829944e-23 9.999001231667993e-07 1.030245141333686e-09  4.955037124746373e-23 9.999999999999972e-07 1.189933027702161e-09  4.954504260456674e-23 9.998982844091941e-07 1.136213585229598e-09  4.953795753895248e-23 9.999999999999972e-07 1.301745773753337e-09  4.95326570268601e-23 9.998976157823142e-07 1.24710432463861e-09  4.952580296646326e-23 9.999999999999972e-07 1.411224430019871e-09  4.952079240654446e-23 9.998976103117896e-07 1.353965853378831e-09  4.951351198014521e-23 9.999999999999972e-07 1.521931792823871e-09  4.950848465901949e-23 9.998983522683755e-07 1.465566144299132e-09  4.950168439780321e-23 9.999999999999972e-07 1.628465183680133e-09  4.949596083982465e-23 9.998951804729e-07 1.575198883741935e-09  4.948986314853799e-23 9.999999999999972e-07 1.734941531251957e-09  4.948419816326444e-23 9.998943331654061e-07 1.680300347794794e-09  4.947802539128562e-23 9.999999999999972e-07 1.841566569553224e-09  4.947204082171488e-23 9.998946655509252e-07 1.790136331058826e-09  4.946621431693076e-23 9.999999999999972e-07 1.94795126968005e-09  4.946020709617708e-23 9.99892108100797e-07 1.894167604775536e-09  4.945456214115651e-23 9.999999999999972e-07 2.052904738629989e-09  4.944888902898389e-23 9.9989413409941e-07 1.998137689776096e-09  4.944221288381585e-23 9.999999999999972e-07 2.164136960145399e-09  4.943686726214237e-23 9.998955439939779e-07 2.107830033679632e-09  4.943011658234924e-23 9.999999999999972e-07 2.273090757700524e-09  4.942418563548505e-23 9.99894345271597e-07 2.220857249475358e-09  4.941823437199785e-23 9.999999999999972e-07 2.380116193922254e-09  4.941259591656728e-23 9.998933798797915e-07 2.324282765268723e-09  4.940646775074202e-23 9.999999999999972e-07 2.48610049612861e-09  4.940047976189092e-23 9.998932541666663e-07 2.433289671514713e-09  4.939334365366697e-23 9.999999999999972e-07 2.604311853522124e-09  4.938867733384375e-23 9.998981132890019e-07 2.544455614960977e-09  4.938133030301396e-23 9.999999999999972e-07 2.712518496570946e-09  4.937643184836779e-23 9.998987075647537e-07 2.655347418365747e-09  4.93696781272397e-23 9.999999999999972e-07 2.817471965520892e-09  4.936367840386018e-23 9.998961942793014e-07 2.767706948777752e-09  4.935697264094385e-23 9.999999999999972e-07 2.931912812216023e-09  4.935191827886016e-23 9.99893157186426e-07 2.870595645038234e-09  4.934490241972922e-23 9.999999999999972e-07 3.040631699744974e-09  4.933898856026648e-23 9.998933005028144e-07 2.987199513107585e-09  4.933323591259946e-23 9.999999999999972e-07 3.145714254069566e-09  4.932743645501888e-23 9.998952588225388e-07 3.093209946608827e-09  4.932044252956645e-23 9.999999999999972e-07 3.260946804190154e-09  4.9315403508462e-23 9.998982685853218e-07 3.204602856651364e-09  4.930877040695903e-23 9.999999999999972e-07 3.366079938240913e-09  4.930288707006424e-23 9.998981531409161e-07 3.317225466853973e-09  4.929668578862329e-23 9.999999999999972e-07 3.474928503508399e-09  4.929127171549851e-23 9.99897799432636e-07 3.421493571561815e-09  4.928393544307666e-23 9.999999999999972e-07 3.589773406413738e-09  4.927841396730108e-23 9.99894288617495e-07 3.533795056402489e-09  4.927173564470792e-23 9.999999999999972e-07 3.699659421188589e-09  4.926617894837817e-23 9.998938547822628e-07 3.643564474494327e-09  4.925921027606022e-23 9.999999999999972e-07 3.812477912337564e-09  4.925329327689987e-23 9.998919789341237e-07 3.757752436891448e-09  4.924688626668909e-23 9.999999999999972e-07 3.923482720360642e-09  4.924086338452027e-23 9.998939375081047e-07 3.871669528250443e-09  4.923407282833215e-23 9.999999999999972e-07 4.0388959127799e-09  4.922834416742477e-23 9.998971905087777e-07 3.987685611815999e-09  4.922225550927649e-23 9.999999999999972e-07 4.145336860171053e-09  4.921612427779543e-23 9.998961547760789e-07 4.096716859879607e-09  4.920979863216278e-23 9.999999999999972e-07 4.257538434426062e-09  4.920413545292229e-23 9.998948120005688e-07 4.203359818832004e-09  4.919634338725736e-23 9.999999999999972e-07 4.378732506310539e-09  4.91917602287651e-23 9.998984076434729e-07 4.318421571542116e-09  4.91841453417381e-23 9.999999999999972e-07 4.488602732820964e-09  4.917935448999469e-23 9.998964790201501e-07 4.42823390922657e-09  4.917249316596384e-23 9.999999999999972e-07 4.59355620177091e-09  4.916647063218494e-23 9.998933076729775e-07 4.541110036516295e-09  4.916057557547633e-23 9.999999999999972e-07 4.700900313928368e-09  4.915498820682143e-23 9.998920898148982e-07 4.64331667161374e-09  4.914884433435662e-23 9.999999999999972e-07 4.806565940198996e-09  4.914277769993321e-23 9.99888689551642e-07 4.749898876901129e-09  4.913691656895875e-23 9.999999999999972e-07 4.914001699801453e-09  4.913086662358446e-23 9.998933258127582e-07 4.861820576028981e-09  4.912417652637589e-23 9.999999999999972e-07 5.02875380185916e-09  4.911855400084297e-23 9.998965027853393e-07 4.975899794991126e-09  4.911208160507638e-23 9.999999999999972e-07 5.137695167974278e-09  4.910648032202423e-23 9.998974164922569e-07 5.085563532766849e-09  4.910040546388341e-23 9.999999999999972e-07 5.242864498225818e-09  4.909438158163567e-23 9.998985612193588e-07 5.195684025279884e-09  4.908692019192959e-23 9.999999999999972e-07 5.364329029718207e-09  4.908248157270506e-23 9.998974357663855e-07 5.301744323877852e-09  4.907515617966779e-23 9.999999999999972e-07 5.470289832195496e-09  4.907004184132386e-23 9.998960836027688e-07 5.412439299487027e-09  4.906247463312233e-23 9.999999999999972e-07 5.584515048788741e-09  4.905722680501922e-23 9.998968876945172e-07 5.528670976688059e-09  4.905075664085686e-23 9.999999999999972e-07 5.690061339989314e-09  4.904484851716334e-23 9.998950512880538e-07 5.638328275375082e-09  4.90388258015151e-23 9.999999999999972e-07 5.797524787216834e-09  4.903321302856425e-23 9.998936960698588e-07 5.741776221418337e-09  4.902709763433928e-23 9.999999999999972e-07 5.903162725862398e-09  4.902137674591305e-23 9.998954181391909e-07 5.850110047025269e-09  4.901486932734723e-23 9.999999999999972e-07 6.013305523487872e-09  4.900996903583551e-23 9.998983315609181e-07 5.9557749864611e-09  4.900238358687486e-23 9.999999999999972e-07 6.125767075765509e-09  4.899731722266155e-23 9.998986313778074e-07 6.070032205542058e-09  4.899073141110061e-23 9.999999999999972e-07 6.230720544715455e-09  4.898514012365184e-23 9.998953274323083e-07 6.176409817168223e-09  4.897907923532636e-23 9.999999999999972e-07 6.335674013665394e-09  4.897318738928258e-23 9.998930797666336e-07 6.28182281159635e-09  4.89673066150515e-23 9.999999999999972e-07 6.441712350231434e-09  4.896150497515263e-23 9.998961182925383e-07 6.390087169346064e-09  4.895543040371914e-23 9.999999999999972e-07 6.548683752093487e-09  4.89501441466522e-23 9.998982473796315e-07 6.494545502441531e-09  4.894364760853392e-23 9.999999999999972e-07 6.654813736104525e-09  4.893841583205424e-23 9.998970052058862e-07 6.598942595202283e-09  4.893178157211191e-23 9.999999999999972e-07 6.761693490521573e-09  4.892653626952659e-23 9.99896354656094e-07 6.705293632155707e-09  4.891998860201634e-23 9.999999999999972e-07 6.86791512197761e-09  4.891445763983496e-23 9.998958243290268e-07 6.813557929445341e-09  4.890813274050469e-23 9.999999999999972e-07 6.974703228949653e-09  4.890231037543154e-23 9.998944952076616e-07 6.921641638961701e-09  4.889632959549876e-23 9.999999999999972e-07 7.081016507850701e-09  4.889053860927254e-23 9.99896818590432e-07 7.029995665106389e-09  4.888432260744964e-23 9.999999999999972e-07 7.18916584165838e-09  4.887928672857366e-23 9.998988029964962e-07 7.133328002616035e-09  4.887248725306449e-23 9.999999999999972e-07 7.295769236855886e-09  4.886690814235846e-23 9.998970339664384e-07 7.243055365090584e-09  4.886022396497455e-23 9.999999999999972e-07 7.406227116200258e-09  4.885534946644165e-23 9.998975042439787e-07 7.347636939734546e-09  4.884804169425722e-23 9.999999999999972e-07 7.515955255926421e-09  4.884296510625107e-23 9.998937532003507e-07 7.455434295985567e-09  4.883618360663033e-23 9.999999999999972e-07 7.622763413962017e-09  4.883055270301148e-23 9.998934137946383e-07 7.566895879482343e-09  4.882439286265e-23 9.999999999999972e-07 7.728964994354507e-09  4.881854008772649e-23 9.998959100178791e-07 7.677592122165583e-09  4.881274068687575e-23 9.999999999999972e-07 7.833918463304453e-09  4.880697784963158e-23 9.998973883878604e-07 7.783213874498589e-09  4.880087258164428e-23 9.999999999999972e-07 7.940816851900514e-09  4.87957149314054e-23 9.998999337615025e-07 7.887206596793702e-09  4.878828549749057e-23 9.999999999999972e-07 8.054191226909213e-09  4.87836806690754e-23 9.999009217926022e-
[...]
<PointData  Tensors="f_71"> 
<DataArray  type="Float64"  Name="f_71"  NumberOfComponents="9" format="ascii">-5.9679542208270796e+03 4.3287559056999056e-08 2.1337874232095903e-08 4.3287559056999056e-08 -2.3467450403854265e+04 2.0446461766013283e+03 2.1337874232095903e-08 2.0446461766013283e+03 3.3799808411473484e+05  2.2369505906330807e+04 4.3281869991437372e-08 2.1335641494727561e-08 4.3281869991437372e-08 2.7321151205480055e+04 2.5451739127423418e+04 2.1335641494727561e-08 2.5451739127423418e+04 3.7389655843495921e+05  -6.9551526769769703e+02 4.3290646968637537e-08 2.1344909619369471e-08 4.3290646968637537e-08 -1.0024939559381346e+04 -1.2767516214019075e+04 2.1344909619369471e-08 -1.2767516214019075e+04 2.3664080835277712e+05  6.4127930369529640e+03 4.3294887763346719e-08 2.1340860507972799e-08 4.3294887763346719e-08 -1.5519144187066186e+03 6.1241670200909193e+03 2.1340860507972799e-08 6.1241670200909193e+03 3.6110153740839090e+05  -1.5460698846897838e+04 4.3293180034437263e-08 2.1344767428108718e-08 4.3293180034437263e-08 -3.6977642878512328e+04 -2.8916414993683069e+04 2.1344767428108718e-08 -2.8916414993683069e+04 2.3117774327146445e+05  1.7465679589568193e+04 4.3302505747344593e-08 2.1344039103422413e-08 4.3302505747344593e-08 1.8453709277094542e+04 -1.3457833064628717e+03 2.1344039103422413e-08 -1.3457833064628717e+03 3.6980622104973544e+05  -5.0780098754079781e+03 4.3304556654124456e-08 2.1351645350283128e-08 4.3304556654124456e-08 -1.6915272525325276e+04 -4.0700764132978446e+04 2.1351645350283128e-08 -4.0700764132978446e+04 2.0499693386752202e+05  1.8249341260218695e+04 4.3316012631592638e-08 2.1352487290770686e-08 4.3316012631592638e-08 2.1424053524464405e+04 -1.3367297606336619e+04 2.1352487290770686e-08 -1.3367297606336619e+04 3.2843207265866303e+05  -2.3961717113634859e+03 4.3318263152795207e-08 2.1360858351197201e-08 4.3318263152795207e-08 -9.8091080140164413e+03 -6.0027973103580123e+04 2.1360858351197201e-08 -6.0027973103580123e+04 1.4617363928104052e+05  6.5437147890235938e+03 4.3331160145619725e-08 2.1363995118110258e-08 4.3331160145619725e-08 3.2804290499261060e+03 -3.0325761004915428e+04 2.1363995118110258e-08 -3.0325761004915428e+04 2.3686482953233158e+05  -5.2420480719972811e+03 4.3333346149570950e-08 2.1370953316290677e-08 4.3333346149570950e-08 -1.2312269776876161e+04 -8.6645712923724685e+04 2.1370953316290677e-08 -8.6645712923724685e+04 7.2287971630943750e+04  9.2821776015063624e+03 4.3348697538084263e-08 2.1380860959442395e-08 4.3348697538084263e-08 1.3230878908809715e+04 -3.2770509854084681e+04 2.1380860959442395e-08 -3.2770509854084681e+04 1.0389975338023491e+05  -9.7437885094015528e+03 4.3350650963529111e-08 2.1384069536385761e-08 4.3350650963529111e-08 -1.6737586903991301e+04 -1.1169650133846120e+05 2.1384069536385761e-08 -1.1169650133846120e+05 -3.1987151142944542e+04  7.3416538912855658e+03 4.3367516190645086e-08 2.1399582136519879e-08 4.3367516190645086e-08 1.5640491177468255e+04 -4.0591314832108801e+04 2.1399582136519879e-08 -4.0591314832108801e+04 -5.7862003701428097e+04  -1.4196625131780715e+04 4.3368737658481529e-08 2.1400902293344893e-08 4.3368737658481529e-08 -1.9194841438810799e+04 -1.3424725927705047e+05 2.1400902293344893e-08 -1.3424725927705047e+05 -1.8707977857640435e+05  5.8803145582867464e+03 4.3386712365939598e-08 2.1420867999973581e-08 4.3386712365939598e-08 1.9938645284809827e+04 -3.8683174958644173e+04 2.1420867999973581e-08 -3.8683174958644173e+04 -2.4687820104547922e+05  -2.0793524086575282e+04 4.3389748002552745e-08 2.1420039363246835e-08 4.3389748002552745e-08 -2.4453277617539265e+04 -1.7096079979260414e+05 2.1420039363246835e-08 -1.7096079979260414e+05 -3.7307102509542514e+05  -1.2125584743560876e+03 4.3408167688204050e-08 2.1444022299827621e-08 4.3408167688204050e-08 1.5084224673268949e+04 -5.1880936767038533e+04 2.1444022299827621e-08 -5.1880936767038533e+04 -4.6848157075747236e+05  -2.5955333109062078e+04 4.3413585642092000e-08 2.1443635960834758e-08 4.3413585642092000e-08 -2.5256579398232694e+04 -2.0840510005868663e+05 2.1443635960834758e-08 -2.0840510005868663e+05 -6.0819519066568150e+05  -8.1026191779483588e+03 4.3431858324291708e-08 2.1472343222278600e-08 4.3431858324291708e-08 1.3022726299191392e+04 -6.5282628153951628e+04 2.1472343222278600e-08 -6.5282628153951628e+04 -7.5556243555057596e+05  -3.4161365135953907e+04 4.3438482100955021e-08 2.1469393470654676e-08 4.3438482100955021e-08 -3.0580487248066882e+04 -2.4650102736571466e+05 2.1469393470654676e-08 -2.4650102736571466e+05 -8.7248787459340191e+05  -1.4985751846611531e+04 4.3458374647056394e-08 2.1503987592111110e-08 4.3458374647056394e-08 1.2260025426272450e+04 -8.2104189273828641e+04 2.1503987592111110e-08 -8.2104189273828641e+04 -1.0774408830290963e+06  -3.6865394247855838e+04 4.3466175506431794e-08 2.1499754126559678e-08 4.3466175506431794e-08 -2.4235785319750947e+04 -2.7899236463835021e+05 2.1499754126559678e-08 -2.7899236463835021e+05 -1.1787168868928463e+06  -1.9245500667618981e+04 4.3486812129109504e-08 2.1541057470598141e-08 4.3486812129109504e-08 1.8384378727081174e+04 -8.5774029405654175e+04 2.1541057470598141e-08 -8.5774029405654175e+04 -1.4551228039866847e+06  -4.1519408059998852e+04 4.3495036063173588e-08 2.1532116863190760e-08 4.3495036063173588e-08 -2.0233227104189398e+04 -3.2001554491535865e+05 2.1532116863190760e-08 -3.2001554491535865e+05 -1.5186073768899878e+06  -2.8690304638756457e+04 4.3514965828004532e-08 2.1579057352468530e-08 4.3514965828004532e-08 1.5793956522989096e+04 -9.0757200733956401e+04 2.1579057352468530e-08 -9.0757200733956401e+04 -1.8550202285084375e+06  -5.0629676823649861e+04 4.3525280695729421e-08 2.1568452785528340e-08 4.3525280695729421e-08 -2.2235666140003377e+04 -3.6401344050995115e+05 2.1568452785528340e-08 -3.6401344050995115e+05 -1.9177672220413424e+06  -3.8660351613626262e+04 4.3543244292639560e-08 2.1619105449031247e-08 4.3543244292639560e-08 1.3727947522375958e+04 -1.0301831198834887e+05 2.1619105449031247e-08 -1.0301831198834887e+05 -2.2952439131865986e+06  -6.0571638831362157e+04 4.3555993108875363e-08 2.1607179572332205e-08 4.3555993108875363e-08 -2.4704240402326628e+04 -4.0204531627248146e+05 2.1607179572332205e-08 -4.0204531627248146e+05 -2.3457009089903012e+06  -4.1625134850173359e+04 4.3574986737128715e-08 2.1663504452819415e-08 4.3574986737128715e-08 2.5828228044908421e+04 -1.1255264253082714e+05 2.1663504452819415e-08 -1.1255264253082714e+05 -2.7701805479998747e+06  -6.8333108906358131e+04 4.3588222669017404e-08 2.1648418511027144e-08 4.3588222669017404e-08 -2.2064728132022214e+04 -4.4264643987848039e+05 2.1648418511027144e-08 -4.4264643987848039e+05 -2.8033424741559429e+06  -5.5880195300990999e+04 4.3605101617697064e-08 2.1707855064205959e-08 4.3605101617697064e-08 1.8227578040877110e+04 -1.3016820302378487e+05 2.1707855064205959e-08 -1.3016820302378487e+05 -3.2738790552075584e+06  -8.1455546766703192e+04 4.3620948713080239e-08 2.1691683947630635e-08 4.3620948713080239e-08 -2.8057272430361780e+04 -4.8403484644266916e+05 2.1691683947630635e-08 -4.8403484644266916e+05 -3.2941914020898803e+06  -6.9776596609870830e+04 4.3635501354157582e-08 2.1757194711575250e-08 4.3635501354157582e-08 1.3720680459113941e+04 -1.3694155003697419e+05 2.1757194711575250e-08 -1.3694155003697419e+05 -3.8434396200405038e+06  -9.0699837307845082e+04 4.3651623503340847e-08 2.1736680889379395e-08 4.3651623503340847e-08 -2.6087649358997987e+04 -5.0809733134048479e+05 2.1736680889379395e-08 -5.0809733134048479e+05 -3.8074948119645785e+06  -8.1984593669565118e+04 4.3667120967407097e-08 2.1807412882060106e-08 4.3667120967407097e-08 1.2443201254502797e+04 -1.4377734886294059e+05 2.1807412882060106e-08 -1.4377734886294059e+05 -4.4163628693362018e+06  -1.0229294878545785e+05 4.3683894322264599e-08 2.1783612577228440e-08 4.3683894322264599e-08 -2.7210912151870521e+04 -5.4410346336465748e+05 2.1783612577228440e-08 -5.4410346336465748e+05 -4.3539931311572129e+06  -9.3468796027828852e+04 4.3699885094033826e-08 2.1861853312655796e-08 4.3699885094033826e-08 1.4570785252524474e+04 -1.4856993609115796e+05 2.1861853312655796e-08 -1.4856993609115796e+05 -5.0454017876958577e+06  -1.1399093168590042e+05 4.3717076241518817e-08 2.1834954174930576e-08 4.3717076241518817e-08 -2.6508259306630360e+04 -5.7175679535505897e+05 2.1834954174930576e-08 -5.7175679535505897e+05 -4.9551148937486392e+06  -1.1006842021549864e+05 4.3730912996957621e-08 2.1916423533029550e-08 4.3730912996957621e-08 8.4435413718971213e+03 -1.6411522558135638e+05 2.1916423533029550e-08 -1.6411522558135638e+05 -5.7056362232364593e+06  -1.2335970869996998e+05 4.3751295873718797e-08 2.1888901431299998e-08 4.3751295873718797e-08 -2.0227090960535272e+04 -6.0208757699799421e+05 2.1888901431299998e-08 -6.0208757699799421e+05 -5.5912729737975486e+06  -1.1731030261685117e+05 4.3764099502768922e-08 2.1973889918172084e-08 4.3764099502768922e-08 1.9999187611590056e+04 -1.7033110344619691e+05 2.1973889918172084e-08 -1.7033110344619691e+05 -6.3786714162935996e+06  -1.4147492716565615e+05 4.3784595778808875e-08 2.1943579379535667e-08 4.3784595778808875e-08 -2.9071803298457602e+04 -6.3324761009053024e+05 2.1943579379535667e-08 -6.3324761009053024e+05 -6.2533975660787718e+06  -1.4294486334875275e+05 4.3796576290908200e-08 2.2035748061774614e-08 4.3796576290908200e-08 1.2053101503772498e+03 -1.8123427589517483e+05 2.2035748061774614e-08 -1.8123427589517483e+05 -7.1457696285946695e+06  -1.4983451397078455e+05 4.3817588188692421e-08 2.1999709944994298e-08 4.3817588188692421e-08 -1.9637629811980263e+04 -6.5530365368911973e+05 2.1999709944994298e-08 -6.5530365368911973e+05 -6.9246495105093298e+06  -1.5141615407034504e+05 4.3830936453586755e-08 2.2097750715034665e-08 4.3830936453586755e-08 1.2842940845726156e+04 -1.8642591514158584e+05 2.2097750715034665e-08 -1.8642591514158584e+05 -7.8822003774861358e+06  -1.6615867824279200e+05 4.3851721468901109e-08 2.2061140024326492e-08 4.3851721468901109e-08 -2.2039155968308885e+04 -6.7226767383648490e+05 2.2061140024326492e-08 -6.7226767383648490e+05 -7.6719855845403448e+06  -1.7119554682176144e+05 4.3864818118899137e-08 2.2164940473722754e-08 4.3864818118899137e-08 6.6022630740590448e+03 -1.7700621163646440e+05 2.2164940473722754e-08 -1.7700621163646440e+05 -8.6975957524523959e+06  -1.7667435978248646e+05 4.3886975921564676e-08 2.2124599944209258e-08 4.3886975921564676e-08 -1.2838656634811377e+04 -6.9387552763860277e+05 2.2124599944209258e-08 -6.9387552763860277e+05 -8.4442054681215715e+06  -1.9412575551437552e+05 4.3896969808895970e-08 2.2228089067791462e-08 4.3896969808895970e-08 -5.3178492092959741e+03 -2.1513945260784746e+05 2.2228089067791462e-08 -2.1513945260784746e+05 -9.5161087679306958e+06  -1.9379743544425929e+05 4.3921593367597510e-08 2.2186809464113566e-08 4.3921593367597510e-08 -1.5482101795062259e+04 -7.3264778372052894e+05 2.2186809464113566e-08 -7.3264778372052894e+05 -9.2247508593127858e+06  -2.0742212161193529e+05 4.3929866244002571e-08 2.2298471054849946e-08 4.3929866244002571e-08 2.2808060572695513e+03 -2.0308484139882255e+05 2.2298471054849946e-08 -2.0308484139882255e+05 -1.0383357760661546e+07  -2.1611836115084297e+05 4.3955121203815041e-08 2.2249997263743441e-08 4.3955121203815041e-08 -2.6369170004541847e+04 -7.7837664811520523e+05 2.2249997263743441e-08 -7.7837664811520523e+05 -1.0040896698496571e+07  -2.1997871199516722e+05 4.3961441433631533e-08 2.2367978343710351e-08 4.3961441433631533e-08 1.1978337872821528e+04 -2.1293542222796218e+05 2.2367978343710351e-08 -2.1293542222796218e+05 -1.1270584917552074e+07  -2.2806143400439312e+05 4.3989610184668919e-08 2.2318913643927077e-08 4.3989610184668919e-08 -1.6225906914497113e+04 -8.0151052681827219e+05 2.2318913643927077e-08 -8.0151052681827219e+05 -1.0909654691789607e+07  -2.4412072270458101e+05 4.3993556541287320e-08 2.2438998123543924e-08 4.3993556541287320e-08 1.3675080207141243e+03 -2.2189514250749521e+05 2.2438998123543924e-08 -2.2189514250749521e+05 -1.2184825099477788e+07  -2.5201116690353479e+05 4.4019239845295178e-08 2.2387176534333487e-08 4.4019239845295178e-08 -2.7701695474562672e+04 -8.0299775485930033e+05 2.2387176534333487e-08 -8.0299775485930033e+05 -1.1790923133869458e+07  -2.5422139315607422e+05 4.4023652711496644e-08 2.2511283597188747e-08 4.4023652711496644e-08 1.6746577396890993e+04 -2.1058810911754810e+05 2.2511283597188747e-08 -2.1058810911754810e+05 -1.3103570616341209e+07  -2.6502298621056933e+05 4.4049777139004597e-08 2.2455425293079625e-08 4.4049777139004597e-08 -1.9143294248105722e+04 -8.1606083995948103e+05 2.2455425293079625e-08 -8.1606083995948103e+05 -1.2669981053742297e+07  -2.8460053170517850e+05 4.4051032175721087e-08 2.2582530343876716e-08 4.4051032175721087e-08 -3.8913101669622292e+03 -2.1366210701448188e+05 2.2582530343876716e-08 -2.1366210701448188e+05 -1.4056871865241893e+07  -2.8384241821629502e+05 4.4080195478011636e-08 2.2525690583929641e-08 4.4080195478011636e-08 -1.9199022992685259e+04 -8.4599969644284330e+05 2.2525690583929641e-08 -8.4599969644284330e+05 -1.3604957126609823e+07  -3.0362291742473270e+05 4.4080273248744281e-08 2.2653859503306700e-08 4.4080273248744281e-08 -3.8476495031116924e+03 -2.3102577837010202e+05 2.2653859503306700e-08 -2.3102577837010202e+05 -1.5004636465914089e+07  -3.0371153349397867e+05 4.4110562622825606e-08 2.2595548838463870e-08 4.4110562622825606e-08 -2.1329109049919320e+04 -8.7733174563521834e+05 2.2595548838463870e-08 -8.7733174563521834e+05 -1.4536039944784483e+07  -3.2876057045840262e+05 4.4110942819502694e-08 2.2732169419629051e-08 4.4110942819502694e-08 -1.1049047942999565e+04 -2.5120031441109913e+05 2.2732169419629051e-08 -2.5120031441109913e+05 -1.6060672348116096e+07  -3.1586116381992551e+05 4.4141050548667439e-08 2.2668484926495960e-08 4.4141050548667439e-08 -8.0431213485509206e+03 -8.9929879624863982e+05 2.2668484926495960e-08 -8.9929879624863982e+05 -1.5500111115557821e+07  -3.4921008315184974e+05 4.4137154533133518e-08 2.2809160538367343e-08 4.4137154533133518e-08 -1.0419238416396716e+04 -2.4192851742501123e+05 2.2809160538367343e-08 -2.4192851742501123e+05 -1.7095312764372904e+07  -3.3473995041601738e+05 4.4171912614440286e-08 2.2742005546948988e-08 4.4171912614440286e-08 -5.9955104463887956e+03 -9.3921453879562044e+05 2.2742005546948988e-08 -9.3921453879562044e+05 -1.6494952069580160e+07  -3.6453670716110524e+05 4.4165571295636262e-08 2.2888854510205992e-08 4.4165571295636262e-08 1.2402164274728116e+03 -2.5180255008357525e+05 2.2888854510205992e-08 -2.5180255008357525e+05 -1.8173465978322454e+07  -3.6174345795834233e+05 4.4198020052012359e-08 2.2817886228445460e-08 4.4198020052012359e-08 -1.6804914135720701e+04 -9.5648816560604202e+05 2.2817886228445460e-08 -9.5648816560604202e+05 -1.7546211816896357e+07  -3.8841119831762422e+05 4.4190572072076599e-08 2.2969660544301229e-08 4.4190572072076599e-08 -1.6318932973945164e+03 -2.4464848690663907e+05 2.2969660544301229e-08 -2.4464848690663907e+05 -1.9283785103635918e+07  -3.8407494538351957e+05 4.4223378702845149e-08 2.2894685728927451e-08 4.4223378702845149e-08 -1.8661344158345717e+04 -9.6669048437282897e+05 2.2894685728927451e-08 -9.6669048437282897e+05 -1.8607230543640170e+07  -4.0204685288421455e+05 4.4215426051539095e-08 2.3046345923092510e-08 4.4215426051539095e-08 1.2802977129869270e+04 -2.6565712408581399e+05 2.3046345923092510e-08 -2.6565712408581399e+05 -2.0352889131875604e+07  -4.0865177072032396e+05 4.4248656388060102e-08 2.2974902888928736e-08 4.4248656388060102e-08 -2.2917104779083489e+04 -9.6745803147674131e+05 2.2974902888928736e-08 -9.6745803147674131e+05 -1.9715060639960885e+07  -4.3253162976894010e+05 4.4237121836672619e-08 2.3124092159393521e-08 4.4237121836672619e-08 -2.4539706621268278e+03 -2.6969679245032457e+05 2.3124092159393521e-08 -2.6969679245032457e+05 -2.1457042378159147e+07  -4.2542203328649758e+05 4.4271757990409162e-08 2.3051214317152943e-08 4.4271757990409162e-08 -1.4412630910351780e+04 -9.7524882531376230e+05 2.3051214317152943e-08 -9.7524882531376230e+05 -2.0779685347966880e+07  -4.6724288245673495e+05 4.4258781164887926e-08 2.3208377572741216e-08 4.4258781164887926e-08 -2.1905977453182200e+04 -2.6317386890241131e+05 2.3208377572741216e-08 -2.6317386890241131e+05 -2.2658003384917043e+07  -4.4665228060432128e+05 4.4291593228052262e-08 2.3123418314178770e-08 4.4291593228052262e-08 -1.5010223674744884e+04 -9.9465239671757596e+05 2.3123418314178770e-08 -9.9465239671757596e+05 -2.1819965773174390e+07  -4.8494330215940118e+05 4.4279499986809198e-08 2.3287838435705653e-08 4.4279499986809198e-08 -1.2043071861431990e+04 -2.8261747552107647e+05 2.3287838435705653e-08 -2.8261747552107647e+05 -2.3805670037260648e+07  -4.6349427606437588e+05 4.4313049865126928e-08 2.3201613099172014e-08 4.4313049865126928e-08 -4.6626559787778997e+03 -1.0115638295981005e+06 2.3201613099172014e-08 -1.0115638295981005e+06 -2.2938029700701028e+07  -5.2983536467350239e+05 4.4294511360360089e-08 2.3367682580679075e-08 4.4294511360360089e-08 -5.1276021532721432e+04 -2.6070897075848875e+05 2.3367682580679075e-08 -2.6070897075848875e+05 -2.4978019166662518e+07  -4.8884660293572530e+05 4.4331924110952315e-08 2.3279307076791393e-08 4.4331924110952315e-08 -9.3724608346076875e+03 -1.0264667287797593e+06 2.3279307076791393e-08 -1.0264667287797593e+06 -2.4072164605807420e+07  -5.5167182388470392e+05 4.4310483012625122e-08 2.3444270057668555e-08 4.4310483012625122e-08 -4.8994575875032460e+04 -2.8596825065534434e+05 2.3444270057668555e-08 -2.8596825065534434e+05 -2.6126365476429399e+07  -4.9729141408548824e+05 4.4350077173887968e-08 2.3353136283565032e-08 4.4350077173887968e-08 1.4997269452460794e+04 -1.0536837379907507e+06 2.3353136283565032e-08 -1.0536837379907507e+06 -2.5151777641626444e+07  -5.6683145576459158e+05 4.4326440877540345e-08 2.3516757783747053e-08 4.4326440877540345e-08 -3.7513067707239636e+04 -2.9950749678415828e+05 2.3516757783747053e-08 -2.9950749678415828e+05 -2.7191394096007235e+07  -5.2277962978193199e+05 4.4367682229078772e-08 2.3427754145846607e-08 4.4367682229078772e-08 8.9514791885797713e+03 -1.0776359067300472e+06 2.3427754145846607e-08 -1.0776359067300472e+06 -2.6256526036641438e+07  -5.9974473377252289e+05 4.4340200388057381e-08 2.3599602391177631e-08 4.4340200388057381e-08 -5.3193094851979899e+04 -2.6958035350858723e+05 2.3599602391177631e-08 -2.6958035350858723e+05 -2.8404945794877715e+07  -5.4467270192468015e+05 4.4380329191614424e-08 2.3499294519501488e-08 4.4380329191614424e-08 8.7521297731938685e+03 -1.0942253266791473e+06 2.3499294519501488e-08 -1.0942253266791473e+06 -2.7340565153198492e+07  -6.0898485448342375e+05 4.4350736251907009e-08 2.3676986410447400e-08 4.4350736251907009e-08 -2.7204993255256766e+04 -2.6506773560264870e+05 2.3676986410447400e-08 -2.6506773560264870e+05 -2.9567923890915129e+07  -5.7629962191648583e+05 4.4390830241096191e-08 2.3575430607679577e-08 4.4390830241096191e-08 -6.5038813160439786e+03 -1.0919859190598284e+06 2.3575430607679577e-08 -1.0919859190598284e+06 -2.8501578546735935e+07  -6.2288086118744535e+05 4.4361744230055480e-08 2.3753636384177122e-08 4.4361744230055480e-08 -9.0706672500084860e+03 -2.8926746449400979e+05 2.3753636384177122e-08 -2.8926746449400979e+05 -3.0750081801264983e+07  -6.0201005204581213e+05 4.4398723761928735e-08 2.3656346902166717e-08 4.4398723761928735e-08 -8.7025313596744600e+03 -1.0581809317313302e+06 2.3656346902166717e-08 -1.0581809317313302e+06 -2.9721479023609173e+07  -6.5340878221272700e+05 4.4368200867427239e-08 2.3830639044074986e-08 4.4368200867427239e-08 -2.1461994114362446e+04 -2.6656877681398322e+05 2.3830639044074986e-08 -2.6656877681398322e+05 -3.1933918767322756e+07  -6.2131347710092436e+05 4.4404354236895599e-08 2.3731772990104575e-08 4.4404354236895599e-08 -1.0355939498155417e+03 -1.0452044959547827e+06 2.3731772990104575e-08 -1.0452044959547827e+06 -3.0889496084038731e+07  -6.8739321965676686e+05 4.4373173120658548e-08 2.3906933408973946e-08 4.4373173120658548e-08 -3.8264097971769836e+04 -2.8928172308507527e+05 