<?xml version="1.0"?>
<VTKFile type="UnstructuredGrid"  version="0.1"  >
<UnstructuredGrid>
<Piece  NumberOfPoints="10101" NumberOfCells="19808">
<Points>
<DataArray  type="Float64"  NumberOfComponents="3"  format="ascii">4.054103932234444e-23 9.668484844120507e-07 4.918726524140444e-08  4.05039329194145e-23 9.667857187595548e-07 4.945872435372525e-08  4.053188850666777e-23 9.669815769229369e-07 4.940278097243381e-08  4.056530826229038e-23 9.671204961754646e-07 4.92406818270239e-08  4.050537333608173e-23 9.669873641351116e-07 4.964739560935038e-08  4.047465830933096e-23 9.667477110252172e-07 4.968439886551487e-08  4.213239664262111e-23 9.665522719745353e-07 3.455738033466632e-08  4.209648610453712e-23 9.663157702113478e-07 3.464433194334632e-08  4.209498419649699e-23 9.664736208813649e-07 3.481571059834312e-08  4.202905465386593e-23 9.669133046878183e-07 3.584923493204844e-08  4.201636568197259e-23 9.667024088588895e-07 3.575263120130086e-08  4.199364101834488e-23 9.667468083613813e-07 3.600171627708436e-08  4.050039254686825e-23 9.666025133057534e-07 4.930740774088382e-08  4.057509323459371e-23 9.668314134701187e-07 4.886346392643973e-08  4.053082723725921e-23 9.666066408352682e-07 4.9037403949791e-08  4.05476916009498e-23 9.671898646041343e-07 4.946872703459145e-08  4.055882787078781e-23 9.665737785238864e-07 4.875233435295812e-08  4.189816144664103e-23 9.66746091735303e-07 3.686100317809993e-08  4.186309200165198e-23 9.665864192159398e-07 3.701720813750625e-08  4.187775385012511e-23 9.667981541501574e-07 3.709688088108365e-08  4.049048778005247e-23 9.663873524526028e-07 4.918146109601478e-08  4.191752959001222e-23 9.666941255283598e-07 3.663458424461811e-08  4.188405836999669e-23 9.665397564065131e-07 3.678169707075058e-08  4.205172578938783e-23 9.66878311362611e-07 3.561003817186411e-08  4.046930647734097e-23 9.665742826594294e-07 4.955917551683886e-08  4.044201047735455e-23 9.665702024906113e-07 4.980095585875582e-08  4.205643681984082e-23 9.664027009498198e-07 3.509199456908776e-08  4.206852570976105e-23 9.662813570108587e-07 3.486176358984652e-08  4.209301297976739e-23 9.66633887663274e-07 3.49937325221101e-08  4.051800373672673e-23 9.663757034788754e-07 4.892197041783749e-08  4.195746733131787e-23 9.665743885783101e-07 3.615512010084401e-08  4.197274292453497e-23 9.667912609159967e-07 3.623440212668986e-08  4.197841076679054e-23 9.665197150948065e-07 3.591180492095931e-08  4.200195011644936e-23 9.664770666525813e-07 3.565713286603009e-08  4.203995345311975e-23 9.666652445683628e-07 3.550300715607644e-08  4.207601929518653e-23 9.668470856784211e-07 3.535999604034919e-08  4.046331650467893e-23 9.663908948616112e-07 4.94297405963181e-08  4.206566192066895e-23 9.666360366051882e-07 3.524223790315209e-08  4.202782051846897e-23 9.664400855788234e-07 3.538713192648125e-08  4.04521314143797e-23 9.661792649673132e-07 4.931885703902746e-08  4.190275988410516e-23 9.664817449342765e-07 3.655523733457365e-08  4.193758748542527e-23 9.666351898508859e-07 3.639498310652801e-08  4.215848158711895e-23 9.665235754557057e-07 3.42937315231958e-08  4.212505158001392e-23 9.66364824043624e-07 3.443609084619648e-08  4.184208854195985e-23 9.666260848296041e-07 3.724605609765657e-08  4.04764691118071e-23 9.661615855195114e-07 4.908196310109549e-08  4.192229614003324e-23 9.664182459386035e-07 3.631577138906483e-08  3.704894367824063e-23 9.291990787123774e-07 4.299186082478721e-08  3.673289655118805e-23 9.281533333411749e-07 4.479281490083575e-08  3.695793890541615e-23 9.298395777971195e-07 4.44520580314918e-08  3.733177242473284e-23 9.304207376921051e-07 4.166602492989096e-08  3.719911778633508e-23 9.308501685530574e-07 4.329030255095743e-08  3.679480328848397e-23 9.300936750042505e-07 4.617555024587617e-08  3.647128412515278e-23 9.283707703360788e-07 4.736664714455544e-08  3.60854246820572e-23 9.267255160493978e-07 4.919690574615976e-08  3.628869553738912e-23 9.287397681309766e-07 4.938025673108233e-08  3.569473611955285e-23 9.255256531259931e-07 5.151605255178011e-08  3.599153402461576e-23 9.277670018348062e-07 5.108408339130184e-08  3.707242103949365e-23 9.31257294709724e-07 4.483861155135233e-08  3.741877039023056e-23 9.317905332045106e-07 4.225221243230138e-08  3.757406067509398e-23 9.31550826968658e-07 4.061377565835848e-08  4.054224029018837e-23 9.663326498325946e-07 4.86606133052795e-08  3.730702632592857e-23 9.322046181779891e-07 4.367279845848248e-08  3.750982852777915e-23 9.330323417870073e-07 4.267384222613236e-08  3.656805010457186e-23 9.299279082023245e-07 4.805219455309339e-08  3.644315920830489e-23 9.30393407828152e-07 4.964261136670062e-08  3.678339018513915e-23 9.311356135728374e-07 4.732028891040466e-08  3.7643431279271e-23 9.327298486952824e-07 4.116796253073864e-08  3.777901601996191e-23 9.326243451412419e-07 3.984122020139273e-08  3.718852053147789e-23 9.325817765811009e-07 4.511736216505286e-08  3.620636372127154e-23 9.295277543621742e-07 5.090982203505562e-08  3.667066206460647e-23 9.314429309203339e-07 4.864297090115151e-08  3.697655528765374e-23 9.318031286366321e-07 4.624792740678801e-08  3.741453695566951e-23 9.335570092476853e-07 4.405681986409939e-08  3.688929112676642e-23 9.323857392896254e-07 4.761654374469122e-08  3.654899159311823e-23 9.317052009691058e-07 5.000115113003628e-08  3.71004433566466e-23 9.331129376999168e-07 4.644185194736896e-08  3.761131738298219e-23 9.341324345790012e-07 4.28598046771769e-08  3.781930829969515e-23 9.336104125707162e-07 4.046436703888197e-08  3.676774035714313e-23 9.327414752448555e-07 4.906711170148544e-08  4.210135011531676e-23 9.668363144449761e-07 3.512106506270518e-08  3.701237325018114e-23 9.336817332467312e-07 4.780391249150402e-08  3.79619500140237e-23 9.336403573041074e-07 3.920950942927813e-08  3.770690654172098e-23 9.337950566037555e-07 4.166143610257781e-08  3.756594550842118e-23 9.347515574835643e-07 4.388760109647212e-08  3.72732188165452e-23 9.336687893160956e-07 4.544148056991156e-08  3.636515246209674e-23 9.308567250648476e-07 5.08085509097071e-08  3.660986291414512e-23 9.328448219182983e-07 5.05924919618403e-08  3.725882365985386e-23 9.344066525204656e-07 4.630900381890362e-08  3.620067801621963e-23 9.306719675347172e-07 5.210524748590491e-08  3.797682897818549e-23 9.344551259662505e-07 3.98902602965118e-08  3.742557577918e-23 9.345886375825174e-07 4.498901931603453e-08  3.771599579619788e-23 9.351526894191682e-07 4.293720019184006e-08  3.786886270103758e-23 9.34514148496711e-07 4.092175659803617e-08  3.641403151854613e-23 9.319397850655769e-07 5.145134750961299e-08  3.676605874579201e-23 9.33566182046378e-07 4.990696511151642e-08  3.777852238115891e-23 9.347411615087459e-07 4.196248287195527e-08  3.768516546434916e-23 9.356348522725495e-07 4.369705798727253e-08  3.689340994730613e-23 9.338176734682654e-07 4.901137888603561e-08  3.716910193579864e-23 9.348061611517237e-07 4.7516653896206e-08  3.624801155747243e-23 9.320069738763048e-07 5.301391118999613e-08  3.688853662305508e-23 9.345508669552003e-07 4.978846737553264e-08  3.649287624924813e-23 9.332712030766621e-07 5.20725953210788e-08  3.800488007977753e-23 9.351939753878112e-07 4.037644785671806e-08  3.670163695739338e-23 9.339220432168551e-07 5.084308616644687e-08  3.780386480327097e-23 9.359502280484935e-07 4.294328516614173e-08  3.702380670533154e-23 9.345883049698551e-07 4.860750080591805e-08  3.734211049656741e-23 9.354442769486117e-07 4.65964471134738e-08  3.792033747367662e-23 9.353364983983071e-07 4.128046296587985e-08  3.630259183841301e-23 9.333816847917965e-07 5.389700663967623e-08  3.810879883206638e-23 9.352131930131312e-07 3.945964857386831e-08  3.744319687968098e-23 9.353987818751668e-07 4.564044684538382e-08  3.785005420553027e-23 9.356095889675505e-07 4.218660893559195e-08  3.778114814646154e-23 9.363585342088862e-07 4.355620478081861e-08  3.714363991160391e-23 9.353422159613821e-07 4.828205023121538e-08  3.680909202960643e-23 9.348971861744073e-07 5.085035987764338e-08  3.756552420625857e-23 9.354587668791478e-07 4.459860524458068e-08  3.812399189810906e-23 9.358409673547539e-07 3.995057594235408e-08  3.665460241506309e-23 9.345066347443517e-07 5.185132718856792e-08  3.650953765965863e-23 9.342376156032894e-07 5.288893520427381e-08  3.787952524577489e-23 9.366423637429128e-07 4.295393217922643e-08  3.72625957465888e-23 9.356216571712254e-07 4.749003253283561e-08  3.797465719551893e-23 9.361138418374986e-07 4.156853784697562e-08  3.791828017035121e-23 9.363656454246165e-07 4.232814053316874e-08  3.695616421915901e-23 9.354699441368057e-07 5.00984093239107e-08  3.759403050128077e-23 9.3619778459691e-07 4.508086108306354e-08  3.821380520964545e-23 9.35882376151544e-07 3.918301834640778e-08  3.768493771901191e-23 9.362306989122621e-07 4.429495597461709e-08  3.804767122261425e-23 9.359465389478015e-07 4.074358306684002e-08  3.704271533601226e-23 9.35326589604151e-07 4.91754716360384e-08  3.647965769486686e-23 9.34956524688344e-07 5.387697908593248e-08  3.738930728257247e-23 9.361451572908592e-07 4.687221659999026e-08  3.74943906268471e-23 9.362709821771635e-07 4.605153486605848e-08  3.732453454459758e-23 9.363169640721263e-07 4.762744433847235e-08  3.688758599246424e-23 9.356496905061926e-07 5.089585344567426e-08  3.785739886404594e-23 9.369440123574251e-07 4.345487752275779e-08  3.771182446873775e-23 9.36843327832681e-07 4.466541058294305e-08  3.821824302604666e-23 9.363413750338055e-07 3.960204493208765e-08  3.664830609614711e-23 9.351915359599346e-07 5.259294060319835e-08  3.778571497086244e-23 9.368809664119602e-07 4.403750268655225e-08  3.716544769916465e-23 9.35982550208176e-07 4.87259573901446e-08  3.742338425858931e-23 9.367488565998516e-07 4.7168977796e-08  3.723066611431025e-23 9.359396519199995e-07 4.809562384167325e-08  3.802718532296704e-23 9.368206243702561e-07 4.180218906932963e-08  3.797999073612487e-23 9.370400030560735e-07 4.244665880257957e-08  3.794144267639824e-23 9.372943018451553e-07 4.304816764650276e-08  3.831663492303966e-23 9.361226557200345e-07 3.84970
[...]
<PointData  Tensors="f_45"> 
<DataArray  type="Float64"  Name="f_45"  NumberOfComponents="9" format="ascii">0.0000000000000000e+00 9.7256013640392265e-19 -4.0836390804276684e-19 9.7256013640392265e-19 1.7549285401717494e-02 1.0611503321356994e-04 -4.0836390804276684e-19 1.0611503321356994e-04 7.5394607126987902e-03  0.0000000000000000e+00 9.7259682032608763e-19 -4.0922735734450960e-19 9.7259682032608763e-19 1.7547092930894292e-02 9.5981370639628338e-05 -4.0922735734450960e-19 9.5981370639628338e-05 7.5376012169816736e-03  0.0000000000000000e+00 9.7330270550996447e-19 -4.0817745641759259e-19 9.7330270550996447e-19 1.7558759443861920e-02 1.0051810444912287e-04 -4.0817745641759259e-19 1.0051810444912287e-04 7.5288109349430418e-03  0.0000000000000000e+00 9.7346384001266240e-19 -4.0711590798114969e-19 9.7346384001266240e-19 1.7566135789591548e-02 1.0881583446102621e-04 -4.0711590798114969e-19 1.0881583446102621e-04 7.5218096338092438e-03  0.0000000000000000e+00 9.7337083128336638e-19 -4.0877142669705023e-19 9.7337083128336638e-19 1.7559935299713416e-02 9.3213759214575434e-05 -4.0877142669705023e-19 9.3213759214575434e-05 7.5249536507709849e-03  0.0000000000000000e+00 9.7250987929378687e-19 -4.0975298860870009e-19 9.7250987929378687e-19 1.7542215720470399e-02 8.9171169480505846e-05 -4.0975298860870009e-19 8.9171169480505846e-05 7.5367607657434738e-03  0.0000000000000000e+00 9.6358648727368880e-19 -3.9567887384440308e-19 9.6358648727368880e-19 1.7391919111436359e-02 5.6554287404115319e-04 -3.9567887384440308e-19 5.6554287404115319e-04 8.2255145319620349e-03  0.0000000000000000e+00 9.6266085570257612e-19 -3.9905613031780925e-19 9.6266085570257612e-19 1.7375406153077765e-02 5.4180727427963400e-04 -3.9905613031780925e-19 5.4180727427963400e-04 8.2387208387856761e-03  0.0000000000000000e+00 9.6311247442374525e-19 -3.9696429826309953e-19 9.6311247442374525e-19 1.7386902535952594e-02 5.4922082796716727e-04 -3.9696429826309953e-19 5.4922082796716727e-04 8.2125041066552357e-03  0.0000000000000000e+00 9.6459705066857829e-19 -3.9122415275498006e-19 9.6459705066857829e-19 1.7427109658129557e-02 5.5432061389688002e-04 -3.9122415275498006e-19 5.5432061389688002e-04 8.1058350357427235e-03  0.0000000000000000e+00 9.6373993166006443e-19 -3.9413979732976482e-19 9.6373993166006443e-19 1.7409441902980712e-02 5.3848793914888316e-04 -3.9413979732976482e-19 5.3848793914888316e-04 8.1289205412901945e-03  0.0000000000000000e+00 9.6394391904997223e-19 -3.9368101102050929e-19 9.6394391904997223e-19 1.7415384690435205e-02 5.3392791622415916e-04 -3.9368101102050929e-19 5.3392791622415916e-04 8.1092676587047659e-03  0.0000000000000000e+00 9.7198819632436718e-19 -4.0963115919653196e-19 9.7198819632436718e-19 1.7535728586209373e-02 9.8640882207743521e-05 -4.0963115919653196e-19 9.8640882207743521e-05 7.5505948369753743e-03  0.0000000000000000e+00 9.7237986254309044e-19 -4.0768689080374944e-19 9.7237986254309044e-19 1.7547060439892237e-02 1.1545752590897075e-04 -4.0768689080374944e-19 1.1545752590897075e-04 7.5449270764032950e-03  0.0000000000000000e+00 9.7183072617498463e-19 -4.0907612943207244e-19 9.7183072617498463e-19 1.7535449868373094e-02 1.0648431042774545e-04 -4.0907612943207244e-19 1.0648431042774545e-04 7.5537251538653890e-03  0.0000000000000000e+00 9.7387202211084371e-19 -4.0748316293366421e-19 9.7387202211084371e-19 1.7572006818047180e-02 1.0202799738824239e-04 -4.0748316293366421e-19 1.0202799738824239e-04 7.5163319632617224e-03  0.0000000000000000e+00 9.7152514262688493e-19 -4.0873227385957859e-19 9.7152514262688493e-19 1.7531540901722330e-02 1.1412119716353622e-04 -4.0873227385957859e-19 1.1412119716353622e-04 7.5612086388606300e-03  0.0000000000000000e+00 9.6387394932209413e-19 -3.9409527144092244e-19 9.6387394932209413e-19 1.7422327715350506e-02 5.0525847504130216e-04 -3.9409527144092244e-19 5.0525847504130216e-04 8.0511879411699454e-03  0.0000000000000000e+00 9.6328297808631778e-19 -3.9621301013422316e-19 9.6328297808631778e-19 1.7411628647845269e-02 4.8733739203070967e-04 -3.9621301013422316e-19 4.8733739203070967e-04 8.0535486400601947e-03  0.0000000000000000e+00 9.6411897955272890e-19 -3.9366965527572337e-19 9.6411897955272890e-19 1.7428642558574691e-02 5.0113960039014944e-04 -3.9366965527572337e-19 5.0113960039014944e-04 8.0333822016511215e-03  0.0000000000000000e+00 9.7123877042246660e-19 -4.1042378113730078e-19 9.7123877042246660e-19 1.7523087362511500e-02 9.8157602893711628e-05 -4.1042378113730078e-19 9.8157602893711628e-05 7.5630476527004343e-03  0.0000000000000000e+00 9.6373385897702722e-19 -3.9467108541081430e-19 9.6373385897702722e-19 1.7416513418720733e-02 5.0807683150636722e-04 -3.9467108541081430e-19 5.0807683150636722e-04 8.0704882497513349e-03  0.0000000000000000e+00 9.6323213213823701e-19 -3.9668512915351018e-19 9.6323213213823701e-19 1.7408114410119267e-02 4.9104483144672402e-04 -3.9668512915351018e-19 4.9104483144672402e-04 8.0720667376056512e-03  0.0000000000000000e+00 9.6451556811532528e-19 -3.9156431777506294e-19 9.6451556811532528e-19 1.7422970483311741e-02 5.5961224003146554e-04 -3.9156431777506294e-19 5.5961224003146554e-04 8.1252174718754403e-03  0.0000000000000000e+00 9.7214367125041461e-19 -4.1040927017721471e-19 9.7214367125041461e-19 1.7537008136377617e-02 9.0253119994671485e-05 -4.1040927017721471e-19 9.0253119994671485e-05 7.5493577509442933e-03  0.0000000000000000e+00 9.7242488433859309e-19 -4.1103610638784066e-19 9.7242488433859309e-19 1.7538810314081141e-02 8.1579039632822238e-05 -4.1103610638784066e-19 8.1579039632822238e-05 7.5465653744531151e-03  0.0000000000000000e+00 9.6278264741537997e-19 -3.9808108169132045e-19 9.6278264741537997e-19 1.7383161991860487e-02 5.3341896730561887e-04 -3.9808108169132045e-19 5.3341896730561887e-04 8.1988174759757611e-03  0.0000000000000000e+00 9.6229052494860386e-19 -3.9965674266014121e-19 9.6229052494860386e-19 1.7373372958898237e-02 5.3130116881905203e-04 -3.9965674266014121e-19 5.3130116881905203e-04 8.2238902063443281e-03  0.0000000000000000e+00 9.6357591026354198e-19 -3.9477007311234771e-19 9.6357591026354198e-19 1.7398257672819155e-02 5.5806323282983974e-04 -3.9477007311234771e-19 5.5806323282983974e-04 8.1876546511300951e-03  0.0000000000000000e+00 9.7107679200361011e-19 -4.0995957333302399e-19 9.7107679200361011e-19 1.7520667025548355e-02 1.0531507483798369e-04 -4.0995957333302399e-19 1.0531507483798369e-04 7.5685025653874421e-03  0.0000000000000000e+00 9.6335282320463991e-19 -3.9590533491076371e-19 9.6335282320463991e-19 1.7404613995696733e-02 5.1468047290792061e-04 -3.9590533491076371e-19 5.1468047290792061e-04 8.1109650876747524e-03  0.0000000000000000e+00 9.6410853618006621e-19 -3.9308490997065924e-19 9.6410853618006621e-19 1.7420629235449858e-02 5.3014230793442670e-04 -3.9308490997065924e-19 5.3014230793442670e-04 8.0886789738281051e-03  0.0000000000000000e+00 9.6318971971256589e-19 -3.9650119894049824e-19 9.6318971971256589e-19 1.7398879314022109e-02 5.1814296042999300e-04 -3.9650119894049824e-19 5.1814296042999300e-04 8.1314206651721538e-03  0.0000000000000000e+00 9.6302580334821665e-19 -3.9704856750063898e-19 9.6302580334821665e-19 1.7393444628901238e-02 5.2249975876455927e-04 -3.9704856750063898e-19 5.2249975876455927e-04 8.1524766076310467e-03  0.0000000000000000e+00 9.6366476464659380e-19 -3.9452646611601928e-19 9.6366476464659380e-19 1.7405314502872672e-02 5.4392912116404588e-04 -3.9452646611601928e-19 5.4392912116404588e-04 8.1495418225009317e-03  0.0000000000000000e+00 9.6432186219885736e-19 -3.9184032353512297e-19 9.6432186219885736e-19 1.7417538325583421e-02 5.6563285486025858e-04 -3.9184032353512297e-19 5.6563285486025858e-04 8.1441734414401511e-03  0.0000000000000000e+00 9.7147234722597148e-19 -4.1095800166057499e-19 9.7147234722597148e-19 1.7525154939408791e-02 9.0820889319679639e-05 -4.1095800166057499e-19 9.0820889319679639e-05 7.5601380556736437e-03  0.0000000000000000e+00 9.6352230236112198e-19 -3.9469768170124337e-19 9.6352230236112198e-19 1.7400539522536784e-02 5.5118496099418649e-04 -3.9469768170124337e-19 5.5118496099418649e-04 8.1693464558919866e-03  0.0000000000000000e+00 9.6288121794039025e-19 -3.9762650394784450e-19 9.6288121794039025e-19 1.7388461085216380e-02 5.2746062173474398e-04 -3.9762650394784450e-19 5.2746062173474398e-04 8.1751884355723316e-03  0.0000000000000000e+00 9.7081123683657964e-19 -4.1162014158433657e-19 9.7081123683657964e-19 1.7512923833284511e-02 9.0557472419630915e-05 -4.1162014158433657e-19 9.0557472419630915e-05 7.5718608744394338e-03  0.0000000000000000e+00 9.6307024978981844e-19 -3.9732841265101094e-19 9.6307024978981844e-19 1.7401205906451445e-02 4.9296825073944851e-04 -3.9732841265101094e-19 4.9296825073944851e-04 8.0914942320068108e-03  0.0000000000000000e+00 9.6357104629407296e-19 -3.9531674226416899e-19 9.6357104629407296e-19 1.7411072909580803e-02 5.1131613940142101e-04 -3.9531674226416899e-19 5.1131613940142101e-04 8.0911055219874892e-03  0.0000000000000000e+00 9.6346517758079448e-19 -3.9580272569124634e-19 9.6346517758079448e-19 1.7383726570796829e-02 5.7067660286641423e-04 -3.9580272569124634e-19 5.7067660286641423e-04 8.2440203256252224e-03  0.0000000000000000e+00 9.6316806338535413e-19 -3.9854211591538078e-19 9.6316806338535413e-19 1.7378650439291151e-02 5.4862805801816602e-04 -3.9854211591538078e-19 5.4862805801816602e-04 8.2489955010872831e-03  0.0000000000000000e+00 9.6348290334783603e-19 -3.9579215674951677e-19 9.6348290334783603e-19 1.7416969979214218e-02 4.8310054852322579e-04 -3.9579215674951677e-19 4.8310054852322579e-04 8.0357537344234453e-03  0.0000000000000000e+00 9.7059654704792770e-19 -4.1121923139632025e-19 9.7059654704792770e-19 1.7510255071304773e-02 9.7157868587269497e-05 -4.1121923139632025e-19 9.7157868587269497e-05 7.5766407654543223e-03  0.0000000000000000e+00 9.6271591850962230e-19 -3.9814425938373552e-19 9.6271591850962230e-19 1.7393588219127027e-02 4.9513391548233168e-04 -3.9814425938373552e-19 4.9513391548233168e-04 8.1117571720951288e-03  0.0000000000000000e+00 -1.3949806953601067e-19 -3.0953899803520079e-19 -1.3949806953601067e-19 -2.2304074422767571e-03 -7.0074043546994313e-04 -3.0953899803520079e-19 -7.0074043546994313e-04 3.8921116202435832e-03  0.0000000000000000e+00 -1.2847696053024369e-19 -2.8021844905615317e-19 -1.2847696053024369e-19 -2.0707016101125636e-03 -5.3348568709022726e-04 -2.8021844905615317e-19 -5.3348568709022726e-04 3.7372618806598579e-03  0.0000000000000000e+00 -1.4449408166549796e-19 -3.0587589309142359e-19 -1.4449408166549796e-19 -2.3609771033344497e-03 -5.8616149711574026e-04 -3.0587589309142359e-19 -5.8616149711574026e-04 4.0958503723117481e-03  0.0000000000000000e+00 -1.4608134088594387e-19 -3.3258305320323379e-19 -1.4608134088594387e-19 -2.3547685092698560e-03 -8.1931092596362843e-04 -3.3258305320323379e-19 -8.1931092596362843e-04 4.0758628257270132e-03  0.0000000000000000e+00 -1.4849680753008071e-19 -3.2457776206070417e-19 -1.4849680753008071e-19 -2.4640970273791087e-03 -7.1165844783088229e-04 -3.2457776206070417e-19 -7.1165844783088229e-04 4.2127726165619526e-03  0.0000000000000000e+00 -1.4305091380213147e-19 -2.8899701258515334e-19 -1.4305091380213147e-19 -2.4145562586875419e-03 -4.8215561746473988e-04 -2.8899701258515334e-19 -4.8215561746473988e-04 4.0793762081396687e-03  0.0000000000000000e+00 -1.2669129979640173e-19 -2.6192814860628161e-19 -1.2669129979640173e-19 -2.1625633100521924e-03 -3.8755022798318904e-04 -2.6192814860628161e-19 -3.8755022798318904e-04 3.8236733417135213e-03  0.0000000000000000e+00 -1.1636205718484962e-19 -2.3232682816010035e-19 -1.1636205718484962e-19 -1.9750933010638551e-03 -2.2978208861378839e-04 -2.3232682816010035e-19 -2.2978208861378839e-04 3.6045647212451996e-03  0.0000000000000000e+00 -1.3072288463611575e-19 -2.5016311131505274e-19 -1.3072288463611575e-19 -2.2685623913080905e-03 -2.3351026786682508e-04 -2.5016311131505274e-19 -2.3351026786682508e-04 3.9531856970316352e-03  0.0000000000000000e+00 -1.0123161634915631e-19 -1.9531585079004092e-19 -1.0123161634915631e-19 -1.7738082446493145e-03 -4.7828636155240333e-05 -1.9531585079004092e-19 -4.7828636155240333e-05 3.3730218650164833e-03  0.0000000000000000e+00 -1.2349729423701570e-19 -2.2492566120852071e-19 -1.2349729423701570e-19 -2.1378205664000665e-03 -7.7873516372054983e-05 -2.2492566120852071e-19 -7.7873516372054983e-05 3.8092445564466919e-03  0.0000000000000000e+00 -1.5451397857237690e-19 -3.1341848032263935e-19 -1.5451397857237690e-19 -2.5914124063033854e-03 -5.8432425532844729e-04 -3.1341848032263935e-19 -5.8432425532844729e-04 4.2853329151263430e-03  0.0000000000000000e+00 -1.5634491239594940e-19 -3.4312209285373237e-19 -1.5634491239594940e-19 -2.6069636660000549e-03 -8.0966015346627259e-04 -3.4312209285373237e-19 -8.0966015346627259e-04 4.3523219203114452e-03  0.0000000000000000e+00 -1.5474656023849706e-19 -3.5401523724188323e-19 -1.5474656023849706e-19 -2.5054873175275709e-03 -9.2170135503116888e-04 -3.5401523724188323e-19 -9.2170135503116888e-04 4.2517899654615438e-03  0.0000000000000000e+00 9.7077453325551113e-19 -4.0964276038264235e-19 9.7077453325551113e-19 1.7517422010155267e-02 1.1259635596577261e-04 -4.0964276038264235e-19 1.1259635596577261e-04 7.5751579387537803e-03  0.0000000000000000e+00 -1.6143069403001758e-19 -3.3305978763382873e-19 -1.6143069403001758e-19 -2.7228089864534651e-03 -6.8294565500990007e-04 -3.3305978763382873e-19 -6.8294565500990007e-04 4.4487125644338855e-03  0.0000000000000000e+00 -1.6600437621730309e-19 -3.5096416420498755e-19 -1.6600437621730309e-19 -2.8264850240203409e-03 -7.8519455694034054e-04 -3.5096416420498755e-19 -7.8519455694034054e-04 4.5880352391791277e-03  0.0000000000000000e+00 -1.3734559901459546e-19 -2.7082557207164343e-19 -1.3734559901459546e-19 -2.4228449962079403e-03 -3.4790377240307411e-04 -2.7082557207164343e-19 -3.4790377240307411e-04 4.1315988790863040e-03  0.0000000000000000e+00 -1.4342651831944552e-19 -2.6164648132486462e-19 -1.4342651831944552e-19 -2.5295215536450086e-03 -2.1653478024928735e-04 -2.6164648132486462e-19 -2.1653478024928735e-04 4.2261135185023046e-03  0.0000000000000000e+00 -1.5102375878128718e-19 -2.8753969564273126e-19 -1.5102375878128718e-19 -2.6411490289304095e-03 -3.9657299846474592e-04 -2.8753969564273126e-19 -3.9657299846474592e-04 4.3072555215183123e-03  0.0000000000000000e+00 -1.6300131968341750e-19 -3.6047289082671834e-19 -1.6300131968341750e-19 -2.7273229941165988e-03 -8.9586845447126506e-04 -3.6047289082671834e-19 -8.9586845447126506e-04 4.4929176620430280e-03  0.0000000000000000e+00 -1.6219788255768498e-19 -3.7156639255369613e-19 -1.6219788255768498e-19 -2.6535684325578873e-03 -1.0009881837792678e-03 -3.7156639255369613e-19 -1.0009881837792678e-03 4.4232398394039533e-03  0.0000000000000000e+00 -1.6417166200152670e-19 -3.2547558702487854e-19 -1.6417166200152670e-19 -2.8405138507219211e-03 -5.8684242110239554e-04 -3.2547558702487854e-19 -5.8684242110239554e-04 4.5726221950314139e-03  0.0000000000000000e+00 -1.3828112743527374e-19 -2.4393058516469421e-19 -1.3828112743527374e-19 -2.4148762647941018e-03 -1.0654163721893129e-04 -2.4393058516469421e-19 -1.0654163721893129e-04 4.1050044242047284e-03  0.0000000000000000e+00 -1.5070099705078521e-19 -2.7903459587926816e-19 -1.5070099705078521e-19 -2.6769537646767262e-03 -3.0371183845923967e-04 -2.7903459587926816e-19 -3.0371183845923967e-04 4.3813826792104445e-03  0.0000000000000000e+00 -1.5872005397380219e-19 -3.0801688295334819e-19 -1.5872005397380219e-19 -2.7497812966899193e-03 -4.8172824344829294e-04 -3.0801688295334819e-19 -4.8172824344829294e-04 4.4758173832329705e-03  0.0000000000000000e+00 -1.7188567987339235e-19 -3.4250716950378412e-19 -1.7188567987339235e-19 -2.9752254645979128e-03 -6.6925849204366498e-04 -3.4250716950378412e-19 -6.6925849204366498e-04 4.7103519889939108e-03  0.0000000000000000e+00 -1.6264087479886072e-19 -2.9924838091705536e-19 -1.6264087479886072e-19 -2.8515861116932707e-03 -3.8357573446489178e-04 -2.9924838091705536e-19 -3.8357573446489178e-04 4.5453366973631374e-03  0.0000000000000000e+00 -1.5374557018904292e-19 -2.7036839389108350e-19 -1.5374557018904292e-19 -2.7462713190168583e-03 -1.9466892122330323e-04 -2.7036839389108350e-19 -1.9466892122330323e-04 4.4578234980399110e-03  0.0000000000000000e+00 -1.6934143614623082e-19 -3.1769942671176084e-19 -1.6934143614623082e-19 -2.9529691678145740e-03 -4.8114468566259720e-04 -3.1769942671176084e-19 -4.8114468566259720e-04 4.6632597606027677e-03  0.0000000000000000e+00 -1.7589466753147383e-19 -3.5851235364577439e-19 -1.7589466753147383e-19 -3.0484579314149830e-03 -7.7169572723711848e-04 -3.5851235364577439e-19 -7.7169572723711848e-04 4.7948142494832549e-03  0.0000000000000000e+00 -1.6978244224601587e-19 -3.7591404439453807e-19 -1.6978244224601587e-19 -2.8591214868630031e-03 -9.6507356821833208e-04 -3.7591404439453807e-19 -9.6507356821833208e-04 4.6423111769277950e-03  0.0000000000000000e+00 -1.6319639735265216e-19 -2.8938320376165189e-19 -1.6319639735265216e-19 -2.9160121070297852e-03 -2.7950082329289107e-04 -2.8938320376165189e-19 -2.7950082329289107e-04 4.6301898777345437e-03  0.0000000000000000e+00 9.6437176985921658e-19 -3.9193283735009701e-19 9.6437176985921658e-19 1.7415778655356776e-02 5.7310460658748484e-04 -3.9193283735009701e-19 5.7310460658748484e-04 8.1634422523364156e-03  0.0000000000000000e+00 -1.7363403608888484e-19 -3.1086873655054794e-19 -1.7363403608888484e-19 -3.0785192178746199e-03 -3.8335416509943822e-04 -3.1086873655054794e-19 -3.8335416509943822e-04 4.7840114711215596e-03  0.0000000000000000e+00 -1.6989450890428706e-19 -3.8701111679561971e-19 -1.6989450890428706e-19 -2.8100585561870212e-03 -1.0589297790987999e-03 -3.8701111679561971e-19 -1.0589297790987999e-03 4.6034240955708282e-03  0.0000000000000000e+00 -1.7162203272977724e-19 -3.6658931717568721e-19 -1.7162203272977724e-19 -2.9283822010462510e-03 -8.7343558963361547e-04 -3.6658931717568721e-19 -8.7343558963361547e-04 4.6937293800992279e-03  0.0000000000000000e+00 -1.8132917739546935e-19 -3.5486936881776946e-19 -1.8132917739546935e-19 -3.1727387485168180e-03 -6.8552648421630236e-04 -3.5486936881776946e-19 -6.8552648421630236e-04 4.9279079457771897e-03  0.0000000000000000e+00 -1.7262561412165071e-19 -3.3210733067274436e-19 -1.7262561412165071e-19 -3.0334280313583264e-03 -5.7016659255449212e-04 -3.3210733067274436e-19 -5.7016659255449212e-04 4.7660620431769531e-03  0.0000000000000000e+00 -1.4910532615485572e-19 -2.5636316111954710e-19 -1.4910532615485572e-19 -2.6292128018700462e-03 -1.1569650193931892e-04 -2.5636316111954710e-19 -1.1569650193931892e-04 4.3300051803096314e-03  0.0000000000000000e+00 -1.6293260413586336e-19 -2.7551688869869523e-19 -1.6293260413586336e-19 -2.9151942320829400e-03 -1.4641051424101834e-04 -2.7551688869869523e-19 -1.4641051424101834e-04 4.6505113716206600e-03  0.0000000000000000e+00 -1.7934739659885483e-19 -3.3046874479205748e-19 -1.7934739659885483e-19 -3.1648512408400582e-03 -4.9458696870884262e-04 -3.3046874479205748e-19 -4.9458696870884262e-04 4.8980374930648364e-03  0.0000000000000000e+00 -1.4830821455970636e-19 -2.4252277233469311e-19 -1.4830821455970636e-19 -2.6097728265434212e-03 -8.2452166389443035e-06 -2.4252277233469311e-19 -8.2452166389443035e-06 4.2905009824187818e-03  0.0000000000000000e+00 -1.7624373648764411e-19 -3.8852957979413364e-19 -1.7624373648764411e-19 -2.9839053001871115e-03 -1.0149055367267245e-03 -3.8852957979413364e-19 -1.0149055367267245e-03 4.7782960059781221e-03  0.0000000000000000e+00 -1.8023987060992336e-19 -3.4378862476239650e-19 -1.8023987060992336e-19 -3.1603311249541665e-03 -6.0577577130485692e-04 -3.4378862476239650e-19 -6.0577577130485692e-04 4.8950120153763007e-03  0.0000000000000000e+00 -1.8314353748514010e-19 -3.6746930710658363e-19 -1.8314353748514010e-19 -3.2118268720540532e-03 -7.7467020343413009e-04 -3.6746930710658363e-19 -7.7467020343413009e-04 4.9830043347135686e-03  0.0000000000000000e+00 -1.7708525211807991e-19 -3.7964027381663593e-19 -1.7708525211807991e-19 -3.0315685955526485e-03 -9.3224564205733314e-04