<?xml version="1.0"?>
<VTKFile type="UnstructuredGrid"  version="0.1"  >
<UnstructuredGrid>
<Piece  NumberOfPoints="10337" NumberOfCells="20334">
<Points>
<DataArray  type="Float64"  NumberOfComponents="3"  format="ascii">4.266870628863954e-23 9.368255394837965e-07 1.076858095315143e-38  4.255737654160246e-23 9.358227702692536e-07 1.074386078345417e-38  4.253982230365388e-23 9.361704645100298e-07 5.058087597440809e-10  4.244604679456538e-23 9.348200010547108e-07 1.071914061375692e-38  4.243370819008227e-23 9.353966135597705e-07 6.877487741644349e-10  4.23347170475283e-23 9.338172318401678e-07 1.069442044405967e-38  4.231344058267209e-23 9.344210140361049e-07 7.954235543334338e-10  4.222233913778863e-23 9.328050216153114e-07 1.066946753548923e-38  4.218740878250211e-23 9.33389599667248e-07 8.992027220412039e-10  4.209845029595685e-23 9.316891301314935e-07 1.064195868655007e-38  4.194529207711292e-23 9.30309603536865e-07 1.060795073035585e-38  4.189400296004868e-23 9.310007887590823e-07 1.153156519214667e-09  4.178309367274735e-23 9.288486501899432e-07 1.057193544973902e-38  4.160093429801639e-23 9.272079044056223e-07 1.05314879433435e-38  4.151305078569901e-23 9.279489705851017e-07 1.532650486128394e-09  4.137848505246354e-23 9.252042597268611e-07 1.048209428849884e-38  4.111141271703894e-23 9.227986859862627e-07 1.042279231729308e-38  4.101798038982794e-23 9.239784609940182e-07 2.021338595779183e-09  4.076884858623862e-23 9.19713142602617e-07 1.034672780020804e-38  4.039561915939896e-23 9.163513907873394e-07 1.026385421957903e-38  4.02777116776899e-23 9.181822829708746e-07 2.892908364913336e-09  3.99895915201965e-23 9.126942189381109e-07 1.017369797284368e-38  3.956088282775113e-23 9.088327543230159e-07 1.007850552060172e-38  3.933231347028477e-23 9.105506866269332e-07 3.776702050144866e-09  3.899318338853762e-23 9.037193723572151e-07 9.952450922905391e-39  3.838071201791071e-23 8.982027206841542e-07 9.816454959386647e-39  3.813234074809629e-23 9.008024824763769e-07 4.836891308594207e-09  3.771196817277948e-23 8.921792116206756e-07 9.667963996498437e-39  3.697265866024709e-23 8.85520103530371e-07 9.503804307870865e-39  3.661543199706156e-23 8.886034861439794e-07 6.300994348026829e-09  3.610193180878267e-23 8.776772932827776e-07 9.310464108139831e-39  3.500818654818602e-23 8.678257117866549e-07 9.067603873862022e-39  3.455700841509291e-23 8.723742535651642e-07 8.6123931226609e-09  3.382103199522436e-23 8.571327741819563e-07 8.804002610164699e-39  3.246195912325012e-23 8.448913340223713e-07 8.502227811242851e-39  3.192918080100813e-23 8.509608422707948e-07 1.08683487554637e-08  3.076422620188422e-23 8.295995153182951e-07 8.125255375449941e-39  2.88015052883377e-23 8.119208969685343e-07 7.689443785623406e-39  2.828058724736602e-23 8.21502013455181e-07 1.427312907706792e-08  2.654386321087383e-23 7.915858649309298e-07 7.188146542470815e-39  2.414095610052634e-23 7.699424017973961e-07 6.654593982482158e-39  2.340060257142016e-23 7.822837844488227e-07 1.900989440703666e-08  2.130154354782941e-23 7.44367247168842e-07 6.024117743999393e-39  1.82216075409841e-23 7.16625649863335e-07 5.340234570165048e-39  1.734770845545298e-23 7.336694624532543e-07 2.491519578183399e-08  1.484094386692859e-23 6.861753385378524e-07 4.589576440274988e-39  1.071420705810335e-23 6.490049978288894e-07 3.673256795929802e-39  9.633301251144317e-24 6.713813960392141e-07 3.211233218921136e-08  5.45802611172134e-24 6.016615287258535e-07 2.506150174275932e-39  -1.084612401337949e-25 5.515230679986988e-07 1.270141689413075e-39  -8.707277512381565e-25 5.819835316646647e-07 3.732635001669912e-08  -5.674948591988918e-24 5.013846072715442e-07 3.413320455022038e-41  -1.124143594384405e-23 4.512461465443895e-07 -1.201875280312637e-39  -1.428060417686656e-23 4.76254613060352e-07 5.238286035947538e-08  -1.68079232956992e-23 4.011076858172346e-07 -2.437883765175496e-39  -2.237441064755432e-23 3.5096922509008e-07 -3.673892250038351e-39  -2.553236474521664e-23 3.749971847780727e-07 5.247228148296293e-08  -2.794089799940946e-23 3.008307643629253e-07 -4.909900734901208e-39  -3.350738535126458e-23 2.506923036357707e-07 -6.145909219764063e-39  -3.664656390329734e-23 2.748916120406475e-07 5.247451511924524e-08  -3.907387270311956e-23 2.005538429086173e-07 -7.381917704626886e-39  -4.464036005497468e-23 1.504153821814627e-07 -8.61792618948974e-39  -4.778686398367663e-23 1.745505344629843e-07 5.247634012316538e-08  -5.020684740682983e-23 1.002769214543079e-07 -9.8539346743526e-39  -5.577333475868495e-23 5.013846072715324e-08 -1.108994315921545e-38  -5.9402427548126e-23 6.994109522973705e-08 5.249059637102312e-08  -6.13398221105399e-23 0 0  -6.716849298982199e-23 3.262652233999262e-55 5.249999999999989e-08  -7.299716386910404e-23 0 1.05e-07  -6.746492278537107e-23 4.982999776644719e-08 1.049999999999998e-07  2.301319865828242e-23 8.647844658040879e-07 1.049999999999998e-07  2.414672788881825e-23 8.749943894445973e-07 1.049999999999998e-07  2.440660507046355e-23 8.694357510350442e-07 9.710059603360698e-08  2.174830728891433e-23 8.533913372045873e-07 1.049999999999998e-07  2.325202461219459e-23 8.582062176531378e-07 9.627059889495925e-08  2.028877407411511e-23 8.40245030719978e-07 1.049999999999998e-07  2.202024905577085e-23 8.45849830949573e-07 9.500906006522254e-08  1.864363768732887e-23 8.254269594829697e-07 1.049999999999998e-07  2.06389696175899e-23 8.335116966134043e-07 9.511238485522643e-08  1.440545333322354e-23 7.872527885272172e-07 1.049999999999998e-07  1.655375951321309e-23 8.066030103505746e-07 1.049999999999998e-07  1.731588513788412e-23 7.977708312100094e-07 8.93032035008787e-08  1.211117411660559e-23 7.665877584771283e-07 1.049999999999998e-07  1.516220012244611e-23 7.770031403815303e-07 8.793418273839978e-08  9.585646368321459e-24 7.438398268249558e-07 1.049999999999998e-07  1.303076609637387e-23 7.558813475868939e-07 8.601064091493081e-08  6.778241607689252e-24 7.185529727572331e-07 1.049999999999998e-07  1.067010858923015e-23 7.320008269930742e-07 8.339303286015473e-08  3.677316885097165e-24 6.906223259068937e-07 1.049999999999998e-07  8.17689880735259e-24 7.04985791486407e-07 7.883483464272807e-08  2.785391326931076e-25 6.600088574684096e-07 1.049999999999998e-07  5.41158962437934e-24 6.718762023909559e-07 7.063293635928206e-08  -3.508204956959836e-24 6.259008989261927e-07 1.049999999999998e-07  1.049124314996824e-24 6.394102838642812e-07 7.746061211611092e-08  -1.244987481592944e-23 5.453614968363417e-07 1.049999999999998e-07  -7.718737097427694e-24 5.879757969685076e-07 1.049999999999998e-07  -6.319058621231398e-24 5.689669783475274e-07 7.338399845134726e-08  -1.767475303177289e-23 4.982999776644842e-07 1.049999999999998e-07  -8.258223596699605e-24 5.299876371306113e-07 5.187110255628821e-08  -2.320699411550596e-23 4.484699798980362e-07 1.049999999999998e-07  -3.427147628297224e-23 3.488099843651389e-07 1.049999999999998e-07  -2.873923519923911e-23 3.986399821315875e-07 1.049999999999998e-07  -4.533595845043855e-23 2.491499888322414e-07 1.049999999999998e-07  -3.98037173667054e-23 2.989799865986901e-07 1.049999999999998e-07  -5.640044061790477e-23 1.494899932993446e-07 1.049999999999998e-07  -5.086819953417161e-23 1.993199910657934e-07 1.049999999999998e-07  -6.193268170163791e-23 9.965999553289597e-08 1.049999999999998e-07  4.278003603567662e-23 9.378283086983394e-07 1.079330112284868e-38  4.267692622956003e-23 9.373032843638962e-07 4.037062343666848e-10  4.204740290755034e-23 9.322714431237017e-07 1.042106991019771e-09  4.172270841821059e-23 9.296305035425131e-07 1.325755372230805e-09  4.128479140646464e-23 9.260986721906598e-07 1.73832980221398e-09  4.067616162320122e-23 9.212838580905511e-07 2.405565432328679e-09  3.980911594998762e-23 9.145503363826315e-07 3.481696866005063e-09  3.876977458426227e-23 9.059704379800886e-07 4.263353238244997e-09  3.741888159491969e-23 8.950220119478546e-07 5.482689532852314e-09  3.570801059645097e-23 8.813879813207502e-07 7.258814888113389e-09  3.333661453398422e-23 8.623797162862985e-07 9.610186700207916e-09  3.017802084256949e-23 8.369073725563352e-07 1.258792571358492e-08  2.598615304467193e-23 8.028549342754766e-07 1.629247593792199e-08  2.056596204163552e-23 7.596397836984098e-07 2.189806572395858e-08  1.391793694264509e-23 7.048031199738485e-07 2.694148871652329e-08  4.264258783284386e-24 6.316737355366074e-07 4.07647070017853e-08  -1.994953372876012e-23 4.252704779885625e-07 5.245990332268068e-08  -3.109205482508871e-23 3.249218329876e-07 5.247416603650484e-08  -4.220619282978408e-23 2.248154315643077e-07 5.247502016619324e-08  -5.344585786778842e-23 1.235829632430052e-07 5.248045439874182e-08  1.984322899185667e-23 8.193387065989165e-07 8.810678921181008e-08  -2.030150401978741e-24 6.06471521918849e-07 7.225749110656384e-08  4.258256090720953e-23 9.36749751752053e-07 7.001408836722355e-10  4.271474904878898e-23 9.377939037488884e-07 5.536479501874679e-10  4.147269785153755e-23 9.289636226654234e-07 2.910769484955791e-09  4.230616541134089e-23 9.350070103849449e-07 1.446948820965862e-09  4.244240913940854e-23 9.36028284444171e-07 1.241048474277867e-09  4.186847192332344e-23 9.317647852884064e-07 2.147116183503219e-09  4.063021804160457e-23 9.229197938831257e-07 4.455324218820771e-09  4.026796126332e-23 9.202996875749948e-07 5.098136894079507e-09  3.969303929777232e-23 9.168822942307761e-07 6.859180249476177e-09  3.861728240464894e-23 9.083742475698097e-07 8.040690274533085e-09  3.799426739588423e-23 9.03593746215345e-07 8.871809242706369e-09  3.647025715381923e-23 8.924370986759654e-07 1.144222561987226e-08  3.436003632148092e-23 8.775736264100145e-07 1.558593286229785e-08  3.310351409276506e-23 8.685946210116428e-07 1.792467354598126e-08  2.993970194304621e-23 8.455279956681596e-07 2.335513463958617e-08  2.809475861440492e-23 8.314887714434289e-07 2.59336825896326e-08  2.575428939073966e-23 8.149772490471825e-07 3.050323284052817e-08  2.020515014169492e-23 7.746655359368081e-07 4.017372263860348e-08  1
[...]
<PointData  Tensors="f_45"> 
<DataArray  type="Float64"  Name="f_45"  NumberOfComponents="9" format="ascii">0.0000000000000000e+00 -1.0543219558751888e-18 -9.4231170897356552e-19 -1.0543219558751888e-18 -3.9122408136418431e-03 -3.3293491010644783e-05 -9.4231170897356552e-19 -3.3293491010644783e-05 1.8278566067893964e-03  0.0000000000000000e+00 -9.7052236054983777e-19 -8.5940545730383319e-19 -9.7052236054983777e-19 -4.0179255417888554e-03 -8.0017863853350767e-05 -8.5940545730383319e-19 -8.0017863853350767e-05 1.8561856378716995e-03  0.0000000000000000e+00 -9.6986933337978864e-19 -8.6938895011895693e-19 -9.6986933337978864e-19 -3.3235789098489260e-03 5.8741755479416058e-06 -8.6938895011895693e-19 5.8741755479416058e-06 1.5252335944998072e-03  0.0000000000000000e+00 -9.0596444549495964e-19 -7.8611804188143375e-19 -9.0596444549495964e-19 -3.9412338950586693e-03 4.0801646820944966e-06 -7.8611804188143375e-19 4.0801646820944966e-06 1.7904333498002883e-03  0.0000000000000000e+00 -8.9099231736972803e-19 -8.0144999070540102e-19 -8.9099231736972803e-19 -3.0516810055773815e-03 -2.2255336493487774e-05 -8.0144999070540102e-19 -2.2255336493487774e-05 1.3941191765938351e-03  0.0000000000000000e+00 -8.4531561907443907e-19 -7.2485068733819828e-19 -8.4531561907443907e-19 -3.8706756192002779e-03 7.8618240387125775e-06 -7.2485068733819828e-19 7.8618240387125775e-06 1.7162959805626175e-03  0.0000000000000000e+00 -8.2810676597050619e-19 -7.4012706926621810e-19 -8.2810676597050619e-19 -3.1014239129097342e-03 -5.0336750529522815e-05 -7.4012706926621810e-19 -5.0336750529522815e-05 1.4158490946766650e-03  0.0000000000000000e+00 -7.9086354598302194e-19 -6.7391146902140568e-19 -7.9086354598302194e-19 -3.8092677133821432e-03 -1.3555823003500023e-05 -6.7391146902140568e-19 -1.3555823003500023e-05 1.6753347464773592e-03  0.0000000000000000e+00 -7.7418004996213761e-19 -6.8553656497578968e-19 -7.7418004996213761e-19 -3.0682812867938486e-03 -3.3599766532810453e-05 -6.8553656497578968e-19 -3.3599766532810453e-05 1.4042226899143432e-03  0.0000000000000000e+00 -7.4286843075075474e-19 -6.2676717507494380e-19 -7.4286843075075474e-19 -3.7588370973326525e-03 3.7115888776542845e-07 -6.2676717507494380e-19 3.7115888776542845e-07 1.6680851279131464e-03  0.0000000000000000e+00 -6.9414839533825432e-19 -5.8121339889878635e-19 -6.9414839533825432e-19 -3.7172804971975591e-03 -1.1409737175772360e-05 -5.8121339889878635e-19 -1.1409737175772360e-05 1.6600049913184265e-03  0.0000000000000000e+00 -6.7691684568477501e-19 -5.8789431166344936e-19 -6.7691684568477501e-19 -3.0235778449457097e-03 -1.8773420629146407e-05 -5.8789431166344936e-19 -1.8773420629146407e-05 1.3823435995034376e-03  0.0000000000000000e+00 -6.4215131684371141e-19 -5.3290429434705485e-19 -6.4215131684371141e-19 -3.5932626670630240e-03 -2.5325301131336998e-05 -5.3290429434705485e-19 -2.5325301131336998e-05 1.5745926655711161e-03  0.0000000000000000e+00 -5.9588599001807500e-19 -4.8912129132453677e-19 -5.9588599001807500e-19 -3.5291971378587851e-03 -2.1875953986861804e-05 -4.8912129132453677e-19 -2.1875953986861804e-05 1.5621434008748624e-03  0.0000000000000000e+00 -5.8256282320434399e-19 -4.9392426125169299e-19 -5.8256282320434399e-19 -2.8751374017190459e-03 1.4098062733624960e-05 -4.9392426125169299e-19 1.4098062733624960e-05 1.3065631488640538e-03  0.0000000000000000e+00 -5.4986947153660876e-19 -4.4615806143812220e-19 -5.4986947153660876e-19 -3.4504024242516776e-03 -2.0100933966298184e-05 -4.4615806143812220e-19 -2.0100933966298184e-05 1.5419018848242543e-03  0.0000000000000000e+00 -4.9763101150796137e-19 -3.9700232379003323e-19 -4.9763101150796137e-19 -3.3097350401050368e-03 -4.6476023222780470e-06 -3.9700232379003323e-19 -4.6476023222780470e-06 1.4876745534236557e-03  0.0000000000000000e+00 -4.8806343451931012e-19 -4.0232425297713104e-19 -4.8806343451931012e-19 -2.6892729476641394e-03 3.7570717520758400e-05 -4.0232425297713104e-19 3.7570717520758400e-05 1.2198745985279975e-03  0.0000000000000000e+00 -4.4573243814088383e-19 -3.4766081134246295e-19 -4.4573243814088383e-19 -3.1561307647660977e-03 1.1944666749887245e-05 -3.4766081134246295e-19 1.1944666749887245e-05 1.4133187306460109e-03  0.0000000000000000e+00 -3.9069966951898564e-19 -3.0027099573657746e-19 -3.9069966951898564e-19 -2.9196532682704271e-03 1.5236132835030284e-06 -3.0027099573657746e-19 1.5236132835030284e-06 1.2936823286372316e-03  0.0000000000000000e+00 -3.8600350476859381e-19 -3.0700110069430492e-19 -3.8600350476859381e-19 -2.4173280605944082e-03 5.5991245993398211e-05 -3.0700110069430492e-19 5.5991245993398211e-05 1.1061297623798881e-03  0.0000000000000000e+00 -3.4180213071884391e-19 -2.5558776325019028e-19 -3.4180213071884391e-19 -2.7359832934499150e-03 7.4486709131401105e-06 -2.5558776325019028e-19 7.4486709131401105e-06 1.1977806624529313e-03  0.0000000000000000e+00 -2.9523975990953190e-19 -2.1455260116261656e-19 -2.9523975990953190e-19 -2.5171472603490578e-03 2.4895100215669732e-05 -2.1455260116261656e-19 2.4895100215669732e-05 1.1134068285156163e-03  0.0000000000000000e+00 -2.9153319532420078e-19 -2.1578453265191590e-19 -2.9153319532420078e-19 -2.0186065477242766e-03 1.3353623861759602e-04 -2.1578453265191590e-19 1.3353623861759602e-04 9.2111242902057631e-04  0.0000000000000000e+00 -2.4627525883526302e-19 -1.7344989102255047e-19 -2.4627525883526302e-19 -2.2471587677681177e-03 3.1926380708530211e-05 -1.7344989102255047e-19 3.1926380708530211e-05 9.9910633180737046e-04  0.0000000000000000e+00 -1.9792165505476857e-19 -1.3303060109196826e-19 -1.9792165505476857e-19 -1.9294957056193403e-03 4.4494973603462883e-05 -1.3303060109196826e-19 4.4494973603462883e-05 8.4951234704007926e-04  0.0000000000000000e+00 -2.0040634373412393e-19 -1.3444329176688298e-19 -2.0040634373412393e-19 -1.5780186405216009e-03 1.7038356832914145e-04 -1.3444329176688298e-19 1.7038356832914145e-04 7.3050107214033943e-04  0.0000000000000000e+00 -1.5247059140718108e-19 -9.6935146597520803e-20 -1.5247059140718108e-19 -1.5968574309683748e-03 4.9743679503042844e-05 -9.6935146597520803e-20 4.9743679503042844e-05 6.9590715577190325e-04  0.0000000000000000e+00 -1.1254119364996404e-19 -6.6567317185248901e-20 -1.1254119364996404e-19 -1.2646194366255816e-03 5.7871758826063978e-05 -6.6567317185248901e-20 5.7871758826063978e-05 5.5217122261663157e-04  0.0000000000000000e+00 -1.1815673630001788e-19 -6.5284624890570354e-20 -1.1815673630001788e-19 -1.0283845502502870e-03 1.9992641998826829e-04 -6.5284624890570354e-20 1.9992641998826829e-04 4.7577810525930366e-04  0.0000000000000000e+00 -7.3914690852368021e-20 -3.8434624031362467e-20 -7.3914690852368021e-20 -9.0198187935322158e-04 6.4846294294746567e-05 -3.8434624031362467e-20 6.4846294294746567e-05 3.9252240508607023e-04  0.0000000000000000e+00 -4.1778856931321607e-20 -1.6864647217622490e-20 -4.1778856931321607e-20 -5.7051668676242771e-04 6.2458986055171059e-05 -1.6864647217622490e-20 6.2458986055171059e-05 2.4662015654138605e-04  0.0000000000000000e+00 -4.9703747863322168e-20 -1.4050248495304182e-20 -4.9703747863322168e-20 -4.7866303386887417e-04 1.8577432491409754e-04 -1.4050248495304182e-20 1.8577432491409754e-04 2.0793533782402987e-04  0.0000000000000000e+00 -1.7659133419884908e-20 -2.1645993610638949e-21 -1.7659133419884908e-20 -3.0788522877312852e-04 5.0250533635457764e-05 -2.1645993610638949e-21 5.0250533635457764e-05 1.2926158478970078e-04  0.0000000000000000e+00 -1.7902738365903636e-21 5.8986625531138149e-21 -1.7902738365903636e-21 -1.1083491374566982e-04 3.5672859829220566e-05 5.8986625531138149e-21 3.5672859829220566e-05 4.3669069165922377e-05  0.0000000000000000e+00 -7.2234493274045150e-21 8.9660960648610706e-21 -7.2234493274045150e-21 -1.0476930551548457e-04 1.0643128120788746e-04 8.9660960648610706e-21 1.0643128120788746e-04 2.5986945547639553e-05  0.0000000000000000e+00 5.3243155032270143e-21 7.7013254954838905e-21 5.3243155032270143e-21 1.3270934515631662e-06 1.8933310387140923e-05 7.7013254954838905e-21 1.8933310387140923e-05 -6.2808779388174542e-06  0.0000000000000000e+00 6.4590109454518770e-21 5.7127960754599181e-21 6.4590109454518770e-21 4.1564792045255863e-05 3.1888158241882320e-06 5.7127960754599181e-21 3.1888158241882320e-06 -2.1744548355142585e-05  0.0000000000000000e+00 4.8699256066177677e-21 7.7025638855089667e-21 4.8699256066177677e-21 1.6153121318010507e-05 2.2341949691553549e-05 7.7025638855089667e-21 2.2341949691553549e-05 -2.2497496724062573e-05  0.0000000000000000e+00 4.0229391047901081e-21 2.7372019082479761e-21 4.0229391047901081e-21 3.2633404603909137e-05 -3.0142113006702790e-06 2.7372019082479761e-21 -3.0142113006702790e-06 -1.5500044968275638e-05  0.0000000000000000e+00 1.7197892063634701e-21 7.3270374795354197e-22 1.7197892063634701e-21 1.6184447298087844e-05 -4.1817719021388061e-06 7.3270374795354197e-22 -4.1817719021388061e-06 -6.7662402916543044e-06  0.0000000000000000e+00 1.6370078380015618e-21 8.8895768133497369e-22 1.6370078380015618e-21 3.3851735810391414e-06 -5.8998514480688190e-06 8.8895768133497369e-22 -5.8998514480688190e-06 -1.7092028499043904e-06  0.0000000000000000e+00 3.9434528346318722e-22 -5.0815306060696105e-23 3.9434528346318722e-22 4.3042638934575230e-06 -2.4524810544010751e-06 -5.0815306060696105e-23 -2.4524810544010751e-06 -1.1899257418605030e-06  0.0000000000000000e+00 -5.2222302997093962e-23 -1.6115233850377353e-22 -5.2222302997093962e-23 -4.8588036662672901e-08 -7.8720400889680120e-07 -1.6115233850377353e-22 -7.8720400889680120e-07 4.3648908813841878e-07  0.0000000000000000e+00 -5.4548326921501009e-23 -2.9941917631942085e-22 -5.4548326921501009e-23 -1.5814278397578547e-06 -1.9038675974384151e-06 -2.9941917631942085e-22 -1.9038675974384151e-06 2.1848937092905014e-06  0.0000000000000000e+00 -6.5873176749014699e-23 -5.5096065699212547e-23 -6.5873176749014699e-23 -4.0602138119360273e-07 1.9565014201646442e-08 -5.5096065699212547e-23 1.9565014201646442e-08 2.5100823636481585e-07  0.0000000000000000e+00 -1.6403600744535472e-23 -3.2235167332705997e-24 -1.6403600744535472e-23 -1.3779826451770183e-07 7.3273060223922189e-08 -3.2235167332705997e-24 7.3273060223922189e-08 4.6913099198169108e-08  0.0000000000000000e+00 -6.7301307512807517e-24 -1.1342343617877586e-23 -6.7301307512807517e-24 3.5801189682090249e-08 5.7335939523679458e-09 -1.1342343617877586e-23 5.7335939523679458e-09 5.8752238812081462e-08  0.0000000000000000e+00 -8.0357140730103153e-25 4.2419386008224618e-24 -8.0357140730103153e-25 -1.0421490258197445e-08 3.2819576164953343e-08 4.2419386008224618e-24 3.2819576164953343e-08 -1.4831185381812191e-08  0.0000000000000000e+00 2.0554329777279186e-24 2.4553419670014785e-24 2.0554329777279186e-24 1.5308334129454336e-08 6.5497493887768625e-09 2.4553419670014785e-24 6.5497493887768625e-09 -9.4129552521986803e-09  0.0000000000000000e+00 3.2597894562247802e-24 3.5073040683319879e-24 3.2597894562247802e-24 2.0087964814442580e-08 4.1386098679551401e-09 3.5073040683319879e-24 4.1386098679551401e-09 -1.6269571937951358e-08  0.0000000000000000e+00 1.2519385610709684e-24 6.1217791585784487e-25 1.2519385610709684e-24 1.3802854641019461e-08 -1.5211552129219203e-09 6.1217791585784487e-25 -1.5211552129219203e-09 -5.3202618533107769e-09  0.0000000000000000e+00 2.1421724864452107e-25 -4.5742218725605278e-25 2.1421724864452107e-25 9.4606324826238915e-09 -2.6249836575655363e-09 -4.5742218725605278e-25 -2.6249836575655363e-09 -2.6114193447583478e-09  0.0000000000000000e+00 -2.2846430843797496e-25 -3.0341594133989326e-25 -2.2846430843797496e-25 -2.5391198380369349e-09 -1.4937671948473224e-09 -3.0341594133989326e-25 -1.4937671948473224e-09 9.0179403237384438e-10  0.0000000000000000e+00 -7.3046794321310820e-25 -1.1550025616668058e-24 -7.3046794321310820e-25 -7.0518775201389748e-10 -3.6423655305226903e-09 -1.1550025616668058e-24 -3.6423655305226903e-09 1.0681924888643188e-09  0.0000000000000000e+00 -9.4905880260182600e-25 -8.1958979235266811e-25 -9.4905880260182600e-25 -9.1196961477938662e-09 -1.5494070719944606e-09 -8.1958979235266811e-25 -1.5494070719944606e-09 3.6885756585484087e-09  0.0000000000000000e+00 -8.0115677637612546e-25 -1.0426592768606860e-24 -8.0115677637612546e-25 -2.2878511310715103e-09 -2.8754055836609954e-09 -1.0426592768606860e-24 -2.8754055836609954e-09 8.8756224851475066e-10  0.0000000000000000e+00 -5.0883173694611086e-25 -2.2914383222641163e-25 -5.0883173694611086e-25 -8.1523719298537178e-09 5.4817138702270770e-11 -2.2914383222641163e-25 5.4817138702270770e-11 3.2235968333555703e-09  0.0000000000000000e+00 -5.9716604453585656e-26 2.1461801934267624e-25 -5.9716604453585656e-26 -4.1204423421480205e-09 1.5155322933169764e-09 2.1461801934267624e-25 1.5155322933169764e-09 2.2095336907672878e-09  0.0000000000000000e+00 3.1867631357595446e-26 1.8802458978255292e-25 3.1867631357595446e-26 -9.8646974652343984e-10 1.3176308420079714e-09 1.8802458978255292e-25 1.3176308420079714e-09 8.0865775144358721e-10  0.0000000000000000e+00 2.1656286085918829e-25 3.0011076992045495e-25 2.1656286085918829e-25 -5.3467105444903414e-10 7.8526049350847493e-10 3.0011076992045495e-25 7.8526049350847493e-10 6.0012671300236598e-10  0.0000000000000000e+00 2.3781213437593909e-25 1.6180790240570132e-25 2.3781213437593909e-25 1.5829740780540164e-09 -1.1678230210776450e-10 1.6180790240570132e-25 -1.1678230210776450e-10 -4.4736815915057242e-10  0.0000000000000000e+00 1.7916791074556873e-25 2.3072742749410290e-25 1.7916791074556873e-25 -6.3586913966812138e-10 4.3096213525718821e-10 2.3072742749410290e-25 4.3096213525718821e-10 5.6897972851808905e-10  0.0000000000000000e+00 8.9231952104870574e-26 -1.3669275082320497e-26 8.9231952104870574e-26 4.7843471134974913e-10 -5.6695190765429995e-10 -1.3669275082320497e-26 -5.6695190765429995e-10 2.4136518700645254e-10  0.0000000000000000e+00 1.8123083145314393e-26 1.6494851410447449e-26 1.8123083145314393e-26 6.7892358894423876e-12 -5.8116538774548177e-11 1.6494851410447449e-26 -5.8116538774548177e-11 -9.3690698100861122e-11  0.0000000000000000e+00 4.5411009146259523e-27 -2.4431059239577397e-26 4.5411009146259523e-27 -3.6558033412675151e-10 -2.3210743867472719e-10 -2.4431059239577397e-26 -2.3210743867472719e-10 4.2328149547565196e-10  0.0000000000000000e+00 8.2311067158395022e-27 3.9183390088115313e-26 8.2311067158395022e-27 4.0762110496465839e-10 4.9250735222356641e-10 3.9183390088115313e-26 4.9250735222356641e-10 1.9806832035882362e-11  0.0000000000000000e+00 -5.9716208026723269e-27 4.6873111700817409e-26 -5.9716208026723269e-27 -3.0660050812524974e-10 3.4973123017899619e-10 4.6873111700817409e-26 3.4973123017899619e-10 5.4096898038400353e-11  0.0000000000000000e+00 -6.4637775625023913e-26 7.7706727396556944e-26 -6.4637775625023913e-26 -9.2655544471363021e-10 7.1859844350310923e-10 7.7706727396556944e-26 7.1859844350310923e-10 -2.0049827134508716e-10  0.0000000000000000e+00 -6.7388083079890647e-27 2.8570479703836443e-26 -6.7388083079890647e-27 -3.9808063542480198e-10 2.9244729727903702e-10 2.8570479703836443e-26 2.9244729727903702e-10 3.4689964465177416e-10  0.0000000000000000e+00 -2.1227684773888833e-20 -1.1428716699825374e-20 -2.1227684773888833e-20 -4.9031899772704877e-04 -5.2100876305861228e-05 -1.1428716699825374e-20 -5.2100876305861228e-05 2.0959472924745516e-04  0.0000000000000000e+00 -2.4884714819679867e-20 -7.7828099072785907e-21 -2.4884714819679867e-20 -8.0197124638172303e-04 -7.1379586659599015e-05 -7.7828099072785907e-21 -7.1379586659599015e-05 3.5113154269925942e-04  0.0000000000000000e+00 -5.9289302454013493e-21 -1.0525678001735182e-20 -5.9289302454013493e-21 -4.2737204729048292e-04 -1.6346266070095726e-04 -1.0525678001735182e-20 -1.6346266070095726e-04 1.8325437181873188e-04  0.0000000000000000e+00 -1.4923908534542777e-20 -1.1685313506597589e-20 -1.4923908534542777e-20 -2.3691407582993059e-04 -3.8830138371639673e-05 -1.1685313506597589e-20 -3.8830138371639673e-05 1.0091245764241967e-04  0.0000000000000000e+00 -6.2669928147421713e-21 -1.2277732723835159e-20 -6.2669928147421713e-21 -2.1715420191017903e-04 -1.2375723127459277e-04 -1.2277732723835159e-20 -1.2375723127459277e-04 7.7919603420241993e-05  0.0000000000000000e+00 -9.1614294457625688e-21 -9.9440980310214183e-21 -9.1614294457625688e-21 -6.9430003757269836e-05 -2.7797476810758487e-05 -9.9440980310214183e-21 -2.7797476810758487e-05 2.7934353931458276e-05  0.0000000000000000e+00 -4.9210424739872407e-21 -1.0776272928853222e-20 -4.9210424739872407e-21 -7.1500787075575467e-05 -8.1400559343432899e-05 -1.0776272928853222e-20 -8.1400559343432899e-05 1.4178123167520976e-05  0.0000000000000000e+00 -4.5718903216252677e-21 -6.1157093182664075e-21 -4.5718903216252677e-21 1.4322685030319820e-05 -1.3771501451164574e-05 -6.1157093182664075e-21 -1.3771501451164574e-05 -1.4054717300646548e-05  0.0000000000000000e+00 -5.3438055333031082e-21 -9.5585234017738659e-21 -5.3438055333031082e-21 -1.9344994481574401e-05 -4.7327234322166382e-05 -9.5585234017738659e-21 -4.7327234322166382e-05 6.1613312490808444e-07  0.0000000000000000e+00 -1.5358825398237690e-22 -5.4965825298168074e-22 -1.5358825398237690e-22 2.9057358979587670e-05 4.3029717807837594e-06 -5.4965825298168074e-22 4.3029717807837594e-06 -1.3316452618396638e-05  0.0000000000000000e+00 -1.6656001165735351e-21 -2.6021067314422422e-21 -1.6656001165735351e-21 3.9315735733136312e-05 2.6563140041999771e-06 -2.6021067314422422e-21 2.6563140041999771e-06 -1.7132504357725734e-05  0.0000000000000000e+00 -1.8096033181015320e-21 -1.7204513406375999e-21 -1.8096033181015320e-21 1.0068553915725742e-05 8.5909594480677121e-07 -1.7204513406375999e-21 8.5909594480677121e-07 -9.9563812760559384e-06  0.0000000000000000e+00 1.3110499643475632e-22 4.5118735562798153e-23 1.3110499643475632e-22 1.2889409240978328e-05 3.1188139987088063e-06 4.5118735562798153e-23 3.1188139987088063e-06 -5.1027904738729455e-06  0.0000000000000000e+00 -7.0861618535976077e-22 -2.9049870111365946e-22 -7.0861618535976077e-22 4.4304534141313756e-06 5.2953320523121348e-06 -2.9049870111365946e-22 5.2953320523121348e-06 -1.3719242944983823e-06  0.0000000000000000e+00 1.7657348881015293e-22 1.9241288407378563e-22 1.7657348881015293e-22 4.4833166941908557e-06 1.6152758532014558e-06 1.9241288407378563e-22 1.6152758532014558e-06 -1.5381021662162208e-06  0.0000000000000000e+00 -3.4314159491238843e-22 5.3953339324824721e-23 -3.4314159491238843e-22 1.0327564089668478e-06 4.4588432156144726e-06 5.3953339324824721e-23 4.4588432156144726e-06 7.3150363081638236e-07  0.0000000000000000e+00 4.8128569678054487e-23 1.0528639136230522e-22 4.8128569678054487e-23 1.3262307770667953e-07 6.5957960322321396e-07 1.0528639136230522e-22 6.5957960322321396e-07 1.5687235098573912e-07  0.0000000000000000e+00 -6.4324173923265286e-23 8.1900663526525076e-23 -6.4324173923265286e-23 -5.4435034717705394e-07 1.6896140431829755e-06 8.1900663526525076e-23 1.6896140431829755e-06 1.2894259397382600e-06  0.0000000000000000e+00 3.3071522575721872e-23 4.2645283842749130e-23 3.3071522575721872e-23 -2.3099973953210718e-07 3.7702018660771343e-08 4.2645283842749130e-23 3.7702018660771343e-08 1.3393822615477581e-07  0.0000000000000000e+00 4.7878923760141534e-24 3.2989367428313058e-23 4.7878923760141534e-24 -2.4857880649429484e-07 4.7968499462601752e-07 3.2989367428313058e-23 4.7968499462601752e-07 6.9991618559900107e-07  0.0000000000000000e+00 8.3430452073035582e-24 7.2496286951543284e-24 8.3430452073035582e-24 -2.1575012481530435e-07 -6.1382498191725755e-08 7.2496286951543284e-24 -6.1382498191725755e-08 1.1268236921855677e-07  0.0000000000000000e+00 1.4856498482198046e-23 7.7185153098754502e-24 1.4856498482198046e-23 5.8729016610519849e-08 -7.0012798339470374e-09 7.7185153098754502e-24 -7.0012798339470374e-09 5.5854897141782082e-08  0.0000000000000000e+00 9.7425978606650106e-25 1.1691908651744649e-24 9.7425978606650106e-25 -8.0628877548703408e-08 -2.5481661291917131e-08 1.1691908651744649e-24 -2.5481661291917131e-08 2.6153988823935097e-08  0.0000000000000000e+00 1.2732189321258013e-23 6.2911655250903662e-24 1.2732189321258013e-23 6.4398691350266107e-08 -5.0710322