<?xml version="1.0"?>
<VTKFile type="UnstructuredGrid"  version="0.1"  >
<UnstructuredGrid>
<Piece  NumberOfPoints="10032" NumberOfCells="19650">
<Points>
<DataArray  type="Float64"  NumberOfComponents="3"  format="ascii">3.901518079129386e-23 9.66732228998744e-07 6.281472165181667e-08  3.898834988629692e-23 9.664900834982315e-07 6.281424745879658e-08  3.89856056490728e-23 9.666501802062126e-07 6.299906205825768e-08  3.895422733336908e-23 9.664831813820316e-07 6.311469397589823e-08  3.896998584585018e-23 9.667226083363249e-07 6.321218086831587e-08  3.901780394277841e-23 9.664465600753998e-07 6.250542548037567e-08  3.906416780321384e-23 9.666390002717108e-07 6.228025714752587e-08  3.904101509164988e-23 9.664099139827283e-07 6.225971194488742e-08  3.92387934833227e-23 9.66604319375141e-07 6.067268795522091e-08  3.92287328780236e-23 9.667430161045423e-07 6.090200256117438e-08  3.925795880545247e-23 9.66820992819999e-07 6.071673552487465e-08  3.927915522128981e-23 9.668131181868059e-07 6.051794055074835e-08  3.875512840970735e-23 9.669435874173484e-07 6.536842368804066e-08  3.878224835139818e-23 9.669007776840083e-07 6.508133923611435e-08  3.874540683655308e-23 9.667184457994995e-07 6.523084621666176e-08  3.914062489003087e-23 9.664357487955205e-07 6.138834145593745e-08  3.913222935909718e-23 9.662710078600518e-07 6.129922074043785e-08  3.910354438129699e-23 9.662820479933335e-07 6.156863218438371e-08  3.936706165080823e-23 9.663336355183809e-07 5.92466671558781e-08  3.934055607125296e-23 9.66365068393723e-07 5.951684106763692e-08  3.937913788930944e-23 9.665374556522188e-07 5.934171420328784e-08  3.872229371466776e-23 9.667148375311332e-07 6.543542244251575e-08  3.913245278778743e-23 9.665308246726845e-07 6.155702508633829e-08  3.907649167930312e-23 9.664774226228155e-07 6.200767589110366e-08  3.916047518518924e-23 9.66261171098737e-07 6.103496819539713e-08  3.916647287857238e-23 9.664603235296323e-07 6.11800982069217e-08  3.947418929169226e-23 9.667524125589066e-07 5.870052418927108e-08  3.948150582280774e-23 9.666600402208747e-07 5.854225039762848e-08  3.944271388158096e-23 9.665215520448576e-07 5.875316896571925e-08  3.919827870200261e-23 9.665114705936205e-07 6.094476388181264e-08  3.909987176563304e-23 9.664291804743568e-07 6.174884464647836e-08  3.94121866323674e-23 9.665721220546204e-07 5.907870399184761e-08  3.906591999316795e-23 9.662288661530106e-07 6.185434070477686e-08  3.877837904059181e-23 9.664793546969011e-07 6.469476790241862e-08  3.873580833988881e-23 9.66334515012601e-07 6.493337100176443e-08  3.876369401549407e-23 9.665569753292526e-07 6.490465948188638e-08  3.971050891153242e-23 9.665308642915775e-07 5.635039801823692e-08  3.966845908176749e-23 9.663928554240628e-07 5.659114034604287e-08  3.96966736120832e-23 9.666204766430301e-07 5.656462766857771e-08  3.926966996837183e-23 9.66635624993849e-07 6.042588292080534e-08  3.962564626994605e-23 9.663382254682564e-07 5.692213391696791e-08  3.966356257302747e-23 9.665625810804551e-07 5.680496983230915e-08  3.932648701352314e-23 9.666021956357616e-07 5.988069111597438e-08  3.932122865038443e-23 9.664218380245182e-07 5.974769662927516e-08  3.928735172441469e-23 9.663563972974152e-07 5.998739212451976e-08  3.946902747681434e-23 9.664704129168287e-07 5.84650180423146e-08  3.950938633147792e-23 9.66688344261553e-07 5.831942914139094e-08  3.936574463928754e-23 9.666523598240587e-07 5.957725404674358e-08  3.903272061678899e-23 9.666553915200398e-07 6.257989946998437e-08  3.876638111919721e-23 9.667073715258211e-07 6.503085239998247e-08  3.873748190205519e-23 9.665315152976352e-07 6.511529717890083e-08  3.88295179594522e-23 9.662756981569562e-07 6.403049293062615e-08  3.882963485824601e-23 9.664280703967085e-07 6.418181223964998e-08  3.886284604863409e-23 9.665268123995887e-07 6.398141443321764e-08  3.910762153507523e-23 9.667432831772192e-07 6.199314363179658e-08  3.91661643510128e-23 9.66623740840102e-07 6.134629448659614e-08  3.903395406084176e-23 9.662148922450466e-07 6.212829031863839e-08  3.889173574196124e-23 9.665053456115569e-07 6.369973242097986e-08  3.892394520540516e-23 9.666999643096529e-07 6.36042340639481e-08  3.892791460084832e-23 9.665435254408525e-07 6.341204205947028e-08  3.890159998550311e-23 9.667348853777545e-07 6.384042298009849e-08  3.888848248180718e-23 9.663071093967399e-07 6.353079896859784e-08  3.879886554682457e-23 9.663987449570562e-07 6.442963211890184e-08  3.884267227520168e-23 9.666272203345298e-07 6.426353156518439e-08  3.920378819005498e-23 9.663572217029504e-07 6.074088993446333e-08  3.924061758077818e-23 9.664275009594088e-07 6.047943953024707e-08  3.880295806516201e-23 9.662472049813807e-07 6.424123001510734e-08  3.962524594094956e-23 9.66869134495342e-07 5.745664878709239e-08  3.962752105998887e-23 9.66680989673551e-07 5.724801151478609e-08  3.960090975978855e-23 9.666842021422607e-07 5.749091726682779e-08  3.863087747666802e-23 9.669832439757224e-07 6.65272331578874e-08  3.862997081478696e-23 9.66792603740578e-07 6.634475940696242e-08  3.858595937382213e-23 9.66749462763624e-07 6.669803824826686e-08  3.919682162214074e-23 9.666816832216195e-07 6.11281007184577e-08  3.945036984653331e-23 9.667227925228219e-07 5.888545064187032e-08  3.885735372588969e-23 9.662970127027207e-07 6.380108518167969e-08  3.929209155147699e-23 9.661679197100395e-07 5.975622197036092e-08  3.907063530272485e-23 9.668542733970052e-07 6.243727621604466e-08  3.928653399061136e-23 9.665505893231405e-07 6.018894964154904e-08  3.941027904970992e-23 9.667725194091306e-07 5.929628332344865e-08  3.981346784913608e-23 9.665909555903977e-07 5.548311765100456e-08  3.985830087258865e-23 9.667412652516985e-07 5.522960733687556e-08  3.981951964592905e-23 9.664449808203386e-07 5.528263314138195e-08  3.879745710331297e-23 9.66773049849891e-07 6.481662314308459e-08  3.904641354314281e-23 9.668477560719951e-07 6.264892910589033e-08  3.922587934767629e-23 9.669021407395008e-07 6.108682951255065e-08  3.92581712964138e-23 9.669650816398187e-07 6.085891039626594e-08  3.928752082616382e-23 9.669979618946889e-07 6.062743358864469e-08  3.866487766878145e-23 9.666630927441427e-07 6.590083542124267e-08  3.869495749256689e-23 9.668133283430412e-07 6.578013605375812e-08  3.868709894984608e-23 9.666115733173999e-07 6.564916448825505e-08  3.909624668692981e-23 9.660782384367327e-07 6.143055441504827e-08  3.912339070267397e-23 9.66104494315115e-07 6.12123187350492e-08  3.910223091242643e-23 9.668972316179277e-07 6.219564648480996e-08  3.870551014890758e-23 9.66501501713674e-07 6.537325954606356e-08  3.948278710737602e-23 9.669257391430089e-07 5.879640853435417e-08  3.950974500018909e-23 9.668886690876813e-07 5.851652336697134e-08  3.871875334774141e-23 9.668357501885647e-07 6.558822389028771e-08  3.930492689876756e-23 9.668034759547768e-07 6.02761676845483e-08  3.997192400078078e-23 9.665911933307832e-07 5.405610926038679e-08  3.994385396030383e-23 9.66574782674368e-07 5.429253105163609e-08  3.998637589247027e-23 9.667815659250844e-07 5.411631078663287e-08  3.912189067254917e-23 9.666388365611337e-07 6.17601720512901e-08  3.957111068873735e-23 9.665599299406498e-07 5.763505123578125e-08  3.958704774326713e-23 9.664966586518331e-07 5.742823172128107e-08  3.968822998851125e-23 9.663183399827387e-07 5.633854440823093e-08  3.978180576963444e-23 9.663315925433807e-07 5.550894126287829e-08  3.881957625183489e-23 9.666717904363219e-07 6.451613215143329e-08  3.920791796816976e-23 9.661914700443972e-07 6.053794054155229e-08  3.972694626851096e-23 9.664534435256335e-07 5.612492270276587e-08  3.906459374940049e-23 9.660442296052332e-07 6.168164989887324e-08  3.965046306240209e-23 9.65890011789029e-07 5.62503904432255e-08  3.969634637012826e-23 9.660580464665464e-07 5.600514502558667e-08  3.966332419931826e-23 9.658248322580738e-07 5.606936808942381e-08  3.891663305520795e-23 9.662917982114517e-07 6.326192995955378e-08  3.988430758325711e-23 9.664647984187129e-07 5.47188928789388e-08  3.991899430973904e-23 9.6669481309856e-07 5.463647730186847e-08  3.99008439690801e-23 9.664147053455647e-07 5.451985328372964e-08  3.933361023123939e-23 9.668129963332746e-07 6.002733157218228e-08  3.900669118847487e-23 9.668645925475878e-07 6.302355274484473e-08  3.962992934119612e-23 9.661875590300828e-07 5.673288900262276e-08  3.924733162641006e-23 9.662819574600376e-07 6.027342128406415e-08  3.969245488039203e-23 9.667669435092335e-07 5.674909349172577e-08  3.950098524277548e-23 9.664864031936661e-07 5.819315835340369e-08  3.916893577756611e-23 9.661026095063213e-07 6.080020036162992e-08  3.944875203138782e-23 9.66870838179281e-07 5.904806828170214e-08  3.973461437664064e-23 9.667548228772653e-07 5.635723387656681e-08  3.897717582852082e-23 9.662556725469098e-07 6.26804834723482e-08  3.895755212064213e-23 9.66828835146836e-07 6.343040071925471e-08  3.973599692080847e-23 9.663347969980335e-07 5.59247551465369e-08  3.970338370118747e-23 9.66248361888629e-07 5.613207380459733e-08  3.894831458004951e-23 9.662813676976877e-07 6.296613763884784e-08  3.958387118355909e-23 9.667686798141509e-07 5.772886478983378e-08  3.953812648345831e-23 9.664932364898851e-07 5.786545309422417e-08  3.963725167582598e-23 9.665450052998474e-07 5.702438154536632e-08  3.988096892745312e-23 9.665722093545793e-07 5.485637575287468e-08  3.913948038630977e-23 9.669853846129062e-07 6.194828604638696e-08  3.966948768588062e-23 9.660940607361834e-07 5.628308081596234e-08  3.879385116464716e-23 9.66064162634585e-07 6.414021533584194e-08  3.88217185562763e-23 9.660791732008826e-07 6.390421875302597e-08  3.966372697470812e-23 9.667421408173389e-07 5.698304877049756e-08  3.965027575971678e-23 9.661540247187416e-07 5.651609044554563e-08  3.985292112713542e-23 9.665322290963814e-07 5.506902762079554e-08  3.982181992298862e-23 9.662907722663317e-07 5.510770553355842e-08  3.93988081602567e-23 9.66312204783533e-07 5.893928928478527e-08  3.942619320776914e-23 9.662652802574851e-07 5.864570217919234e-08  3.900386017942265e-23 9.662243804815322e-07 6
[...]
<PointData  Vectors="f_25"> 
<DataArray  type="Float64"  Name="f_25"  NumberOfComponents="3" format="ascii">0.0000000000000000e+00 4.6108023217441915e-10 7.8608277120647996e-11  0.0000000000000000e+00 4.5684910245869485e-10 7.8744154932370520e-11  0.0000000000000000e+00 4.5963305250986707e-10 8.0087877863190525e-11  0.0000000000000000e+00 4.5670811149239350e-10 8.1085835673310072e-11  0.0000000000000000e+00 4.6088303972954276e-10 8.1701564700808364e-11  0.0000000000000000e+00 4.5610952228407637e-10 7.6369415171778952e-11  0.0000000000000000e+00 4.5948686094667280e-10 7.4519002854037717e-11  0.0000000000000000e+00 4.5548572242866029e-10 7.4482943983550626e-11  0.0000000000000000e+00 4.5898607443310880e-10 6.2144061159988366e-11  0.0000000000000000e+00 4.6139888282030642e-10 6.3841220526763558e-11  0.0000000000000000e+00 4.6277579881186458e-10 6.2383243989163915e-11  0.0000000000000000e+00 4.6265062895144964e-10 6.0863229342139227e-11  0.0000000000000000e+00 4.6458373366464688e-10 9.8417824611407983e-11  0.0000000000000000e+00 4.6385783619131163e-10 9.6192237919580317e-11  0.0000000000000000e+00 4.6066307260514487e-10 9.7505451507529291e-11  0.0000000000000000e+00 4.5599375367417369e-10 6.7730256779486594e-11  0.0000000000000000e+00 4.5312091609139976e-10 6.7119208197088659e-11  0.0000000000000000e+00 4.5329691835429538e-10 6.9195965938200873e-11  0.0000000000000000e+00 4.5433246123797114e-10 5.1326825764965038e-11  0.0000000000000000e+00 4.5486767548755533e-10 5.3382536553474708e-11  0.0000000000000000e+00 4.5789412958499180e-10 5.1980214714558665e-11  0.0000000000000000e+00 4.6058577482621029e-10 9.9121418452716486e-11  0.0000000000000000e+00 4.5764490899505201e-10 6.8985872289322569e-11  0.0000000000000000e+00 4.5668141316627620e-10 7.2495404454733253e-11  0.0000000000000000e+00 4.5296462526326665e-10 6.5084907233060741e-11  0.0000000000000000e+00 4.5643632793255245e-10 6.6113020851945434e-11  0.0000000000000000e+00 4.6169287853405738e-10 4.7016617025577299e-11  0.0000000000000000e+00 4.6008255898896051e-10 4.5843781586837739e-11  0.0000000000000000e+00 4.5764625607144760e-10 4.7495580594566734e-11  0.0000000000000000e+00 4.5734529195777085e-10 6.4277367705827099e-11  0.0000000000000000e+00 4.5585608804831255e-10 7.0517590710427685e-11  0.0000000000000000e+00 4.5851491265321692e-10 4.9960340764602988e-11  0.0000000000000000e+00 4.5235011495987429e-10 7.1432563998567568e-11  0.0000000000000000e+00 4.5653026551873299e-10 9.3455090981792872e-11  0.0000000000000000e+00 4.5398840727734241e-10 9.5431901674504829e-11  0.0000000000000000e+00 4.5787046040911172e-10 9.5052395851761568e-11  0.0000000000000000e+00 4.5791065585539000e-10 2.9254399763846652e-11  0.0000000000000000e+00 4.5548414813721479e-10 3.1105796270385024e-11  0.0000000000000000e+00 4.5947439866907862e-10 3.0855867338540567e-11  0.0000000000000000e+00 4.5954949135133181e-10 6.0236523138857071e-11  0.0000000000000000e+00 4.5451578426193573e-10 3.3627091624883834e-11  0.0000000000000000e+00 4.5845061250477603e-10 3.2687688622825864e-11  0.0000000000000000e+00 4.5899708951414614e-10 5.6075213288523975e-11  0.0000000000000000e+00 4.5584845509437994e-10 5.5128027875466621e-11  0.0000000000000000e+00 4.5468994482696873e-10 5.6989749570859189e-11  0.0000000000000000e+00 4.5676512877542728e-10 4.5316840488904962e-11  0.0000000000000000e+00 4.6058941990451990e-10 4.4140429218056885e-11  0.0000000000000000e+00 4.5989248718079407e-10 5.3735971235655356e-11  0.0000000000000000e+00 4.5975313916646821e-10 7.6831206886866805e-11  0.0000000000000000e+00 4.6048488450245075e-10 9.5938849701986150e-11  0.0000000000000000e+00 4.5741042979497153e-10 9.6730216644366285e-11  0.0000000000000000e+00 4.5302502205058098e-10 8.8367547445299267e-11  0.0000000000000000e+00 4.5567161488283586e-10 8.9459238311897672e-11  0.0000000000000000e+00 4.5740877213499320e-10 8.7825921111533234e-11  0.0000000000000000e+00 4.6133023850342847e-10 7.2242971428177433e-11  0.0000000000000000e+00 4.5928311360766820e-10 6.7315434590305703e-11  0.0000000000000000e+00 4.5208900682988595e-10 7.3563259249802551e-11  0.0000000000000000e+00 4.5705401546528768e-10 8.5636378539249178e-11  0.0000000000000000e+00 4.6045933543604145e-10 8.4768423026087631e-11  0.0000000000000000e+00 4.5774076527420728e-10 8.3367330556713350e-11  0.0000000000000000e+00 4.6105194335821585e-10 8.6588871517624485e-11  0.0000000000000000e+00 4.5360650830272197e-10 8.4435505283164452e-11  0.0000000000000000e+00 4.5514269365838429e-10 9.1423848850440082e-11  0.0000000000000000e+00 4.5914127236935040e-10 8.9968970940357998e-11  0.0000000000000000e+00 4.5466075344805626e-10 6.2777390614546903e-11  0.0000000000000000e+00 4.5590489108026196e-10 6.0737066026575104e-11  0.0000000000000000e+00 4.5251359172507663e-10 9.0039501908226654e-11  0.0000000000000000e+00 4.6379952346812685e-10 3.7543192464642816e-11  0.0000000000000000e+00 4.6050899064231489e-10 3.6014118400529033e-11  0.0000000000000000e+00 4.6055559234616816e-10 3.7853706443519644e-11  0.0000000000000000e+00 4.6519155310459325e-10 1.0754289382196083e-10  0.0000000000000000e+00 4.6187758287779194e-10 1.0625676349986236e-10  0.0000000000000000e+00 4.6110114306332640e-10 1.0910155395512379e-10  0.0000000000000000e+00 4.6031091872119547e-10 6.5607935490560855e-11  0.0000000000000000e+00 4.6116380772803642e-10 4.8434102735824082e-11  0.0000000000000000e+00 4.5341186895843717e-10 8.6556556432040504e-11  0.0000000000000000e+00 4.5140708497702892e-10 5.5288251717577904e-11  0.0000000000000000e+00 4.6324007301643125e-10 7.5613223423410081e-11  0.0000000000000000e+00 4.5807532707260989e-10 5.8456640635662073e-11  0.0000000000000000e+00 4.6201278795072854e-10 5.1545658242472532e-11  0.0000000000000000e+00 4.5899062236163860e-10 2.2690013539624755e-11  0.0000000000000000e+00 4.6163391588810200e-10 2.0754688845547671e-11  0.0000000000000000e+00 4.5643668123840221e-10 2.1198333272477351e-11  0.0000000000000000e+00 4.6164697916150133e-10 9.4207084962227852e-11  0.0000000000000000e+00 4.6311154803199726e-10 7.7254973949290759e-11  0.0000000000000000e+00 4.6417230492018719e-10 6.5183303230866033e-11  0.0000000000000000e+00 4.6528994887120596e-10 6.3404358320049767e-11  0.0000000000000000e+00 4.6588113446625069e-10 6.1615943027592219e-11  0.0000000000000000e+00 4.5965000105741590e-10 1.0284094033991126e-10  0.0000000000000000e+00 4.6227999092457574e-10 1.0176791762259674e-10  0.0000000000000000e+00 4.5876947512265532e-10 1.0088851855142889e-10  0.0000000000000000e+00 4.4974635611536002e-10 6.8221899487423946e-11  0.0000000000000000e+00 4.5021758279961211e-10 6.6522849572402964e-11  0.0000000000000000e+00 4.6400922171176831e-10 7.3721606490133724e-11  0.0000000000000000e+00 4.5686928838362688e-10 9.8788356641047019e-11  0.0000000000000000e+00 4.6472607985110074e-10 4.7684612438891102e-11  0.0000000000000000e+00 4.6409099415177590e-10 4.5571741534285368e-11  0.0000000000000000e+00 4.6268453895052774e-10 1.0023444540380848e-10  0.0000000000000000e+00 4.6249710613706468e-10 5.9016664400623055e-11  0.0000000000000000e+00 4.5902524836570261e-10 1.1930273055118731e-11  0.0000000000000000e+00 4.5873327075920970e-10 1.3713159014331696e-11  0.0000000000000000e+00 4.6236440106760531e-10 1.2366882275424260e-11  0.0000000000000000e+00 4.5951966842447582e-10 7.0499178312042324e-11  0.0000000000000000e+00 4.5837124279066366e-10 3.8981057093500904e-11  0.0000000000000000e+00 4.5727141065928144e-10 3.7428326005172538e-11  0.0000000000000000e+00 4.5418729386159600e-10 2.9207257618301289e-11  0.0000000000000000e+00 4.5444378241403487e-10 2.2925709633393469e-11  0.0000000000000000e+00 4.5990082841105698e-10 9.1919548778836586e-11  0.0000000000000000e+00 4.5177567243379698e-10 6.1285418361799268e-11  0.0000000000000000e+00 4.5656110898572251e-10 2.7563887052034062e-11  0.0000000000000000e+00 4.4913777791898051e-10 7.0181675975921000e-11  0.0000000000000000e+00 4.4669221926088760e-10 2.8618483053255462e-11  0.0000000000000000e+00 4.4963965308369862e-10 2.6727773793825160e-11  0.0000000000000000e+00 4.4555737832766147e-10 2.7254586337464012e-11  0.0000000000000000e+00 4.5335734907759116e-10 8.2344259339491137e-11  0.0000000000000000e+00 4.5679711375765323e-10 1.6939752794302433e-11  0.0000000000000000e+00 4.6083258320579985e-10 1.6291963182446799e-11  0.0000000000000000e+00 4.5592222016211962e-10 1.5443661442543796e-11  0.0000000000000000e+00 4.6267922097377582e-10 5.7109279977397227e-11  0.0000000000000000e+00 4.6337890457049297e-10 8.0149070522355841e-11  0.0000000000000000e+00 4.5188406819511375e-10 3.2224115264786909e-11  0.0000000000000000e+00 4.5337227623249281e-10 5.9214626137878836e-11  0.0000000000000000e+00 4.6203602356858133e-10 3.2217481999367621e-11  0.0000000000000000e+00 4.5705812211425997e-10 4.3242647435939228e-11  0.0000000000000000e+00 4.5020855004523845e-10 6.3342669950335689e-11  0.0000000000000000e+00 4.6374981371360612e-10 4.9618243305464403e-11  0.0000000000000000e+00 4.6183755511406655e-10 2.9259409455052339e-11  0.0000000000000000e+00 4.5276535301338438e-10 7.7832872494798835e-11  0.0000000000000000e+00 4.6272403057955561e-10 8.3332918546377974e-11  0.0000000000000000e+00 4.5448833227109753e-10 2.6070879832918532e-11  0.0000000000000000e+00 4.5296808397363418e-10 2.7656308832040159e-11  0.0000000000000000e+00 4.5319532364376098e-10 8.0043034705229151e-11  0.0000000000000000e+00 4.6202567454854154e-10 3.9633538632311010e-11  0.0000000000000000e+00 4.5719249376247215e-10 4.0749151101127014e-11  0.0000000000000000e+00 4.5813442447619673e-10 3.4353897045098227e-11  0.0000000000000000e+00 4.5867741904721196e-10 1.7964245686732049e-11  0.0000000000000000e+00 4.6556981422472619e-10 7.1764388877973864e-11  0.0000000000000000e+00 4.5026204367918086e-10 2.8829666827302005e-11  0.0000000000000000e+00 4.4933066494318412e-10 8.9357496722557882e-11  0.0000000000000000e+00 4.4960742436540241e-10 8.7494691752889686e-11  0.0000000000000000e+00 4.6159173295261242e-10 3.3992823835369473e-11  0.0000000000000000e+00 4.5130420366310857e-10 3.0585967802792064e-11  0.0000000000000000e+00 4.5797129952203769e-10 1.9573491726794328e-11  0.0000000000000000e+00 4.5373838491429248e-10 1.9897890470002280e-11  0.0000000000000000e+00 4.5397280712119251e-10 4.8985479477529782e-11  0.0000000000000000e+00 4.5316606844175754e-10 4.6759201809631639e-11  0.0000000000000000e+00 4.5223675226935908e-10 7.5737059176751543e-11  0.0000000000000000e+00 4.6107714205428956e-10 4.2037714562778821e-11  0.0000000000000000e+00 4.6280658202737309e-10 3.0690369833342745e-11  0.0000000000000000e+00 4.6337289622668610e-10 1.0365645741864394e-10  0.0000000000000000e+00 4.5861295699146184e-10 2.5975138464546979e-11  0.0000000000000000e+00 4.6052361331772805e-10 2.7562604614604337e-11  0.0000000000000000e+00 4.6181558957133434e-10 1.8630131694202763e-11  0.0000000000000000e+00 4.6207877539076921e-10 8.8523217504277539e-11  0.0000000000000000e+00 4.5601935873580502e-10 3.5698482993762864e-11  0.0000000000000000e+00 4.6524521535328373e-10 8.1725346963637083e-11  0.0000000000000000e+00 4.5027440933129860e-10 5.7710180113408447e-11  0.0000000000000000e+00 4.5783529800743383e-10 1.0728427070583466e-10  0.0000000000000000e+00 4.5067067537703183e-10 5.2838674179104473e-11  0.0000000000000000e+00 4.5801573780866262e-10 1.0483519216395774e-10  0.0000000000000000e+00 4.5506771700110496e-10 3.8896391784753143e-11  0.0000000000000000e+00 4.5228414895675815e-10 2.4660814727865822e-11  0.0000000000000000e+00 4.5666887473864550e-10 2.4396974860406063e-11  0.0000000000000000e+00 4.4613443981466798e-10 2.5937817119431474e-11  0.0000000000000000e+00 4.6348365839598787e-10 5.4965097813462945e-11  0.0000000000000000e+00 4.6807826015861044e-10 7.3102432643274975e-11  0.0000000000000000e+00 4.6492987829904214e-10 3.5429176027180098e-11  0.0000000000000000e+00 4.6295895627933555e-10 1.1180602459916734e-10  0.0000000000000000e+00 4.5877141457437432e-10 1.1353281506305006e-10  0.0000000000000000e+00 4.6282712316462064e-10 1.1429109571749032e-10  0.0000000000000000e+00 4.6614507764837369e-10 1.0526447139122225e-10  0.0000000000000000e+00 4.6139547702323139e-10 6.8707226221722444e-11  0.0000000000000000e+00 4.6293795292901907e-10 6.6928582605527115e-11  0.0000000000000000e+00 4.4832484996205025e-10 6.5228092847422033e-11  0.0000000000000000e+00 4.6454059179663435e-10 4.3275099437495121e-11  0.0000000000000000e+00 4.6346077187888900e-10 1.4087893056906803e-11  0.0000000000000000e+00 4.6706122120299678e-10 7.4933701635771023e-11  0.0000000000000000e+00 4.6639876460007528e-10 7.6749140017062966e-11  0.0000000000000000e+00 4.6288409732336050e-10 -1.9162484625542767e-11  0.0000000000000000e+00 4.6595763571752585e-10 -2.1216398413386992e-11  0.0000000000000000e+00 4.6175230007714032e-10 -2.0975596289512422e-11  0.0000000000000000e+00 4.5800076158252100e-10 1.1136783088017969e-10  0.0000000000000000e+00 4.6554639163339805e-10 2.9706633028737516e-11  0.0000000000000000e+00 4.6620367139349929e-10 1.0105174509635392e-10  0.0000000000000000e+00 4.4980707025841241e-10 8.5497985845632875e-11  0.0000000000000000e+00 4.6520616658663826e-10 3.3306727482664285e-11  0.0000000000000000e+00 4.4797404833527808e-10 7.2564701642416626e-11  0.0000000000000000e+00 4.6337118088739461e-10 9.0463407359799306e-11  0.0000000000000000e+00 4.5716664346646115e-10 -4.1362943347528403e-12  0.0000000000000000e+00 4.5526586020290672e-10 -5.7378664862274958e-12  0.0000000000000000e+00 4.5388447723392265e-10 -4.2301740559942562e-12  0.0000000000000000e+00 4.6524211932563519e-10 8.7027803878794874e-11  0.0000000000000000e+00 4.6344200907122539e-10 7.0222288495454155e-11  0.0000000000000000e+00 4.6100614886502595e-10 2.4300555733721575e-11  0.0000000000000000e+00 4.5417932871205015e-10 9.7405989292108553e-11  0.0000000000000000e+00 4.5204816065740844e-10 2.1485432529121312e-11  0.0000000000000000e+00 4.4941483449438392e-10 4.8292893021608509e-11  0.0000000000000000e+00 4.4982045527966151e-10 8.3440221956987510e-11  0.0000000000000000e+00 4.4824439740461231e-10 3.5596387874812044e-11  0.0000000000000000e+00 4.4964063228283773e-10 3.3749249339126945e-11  0.0000000000000000e+00 4.4629693973121140e-10 3.4457290710012181e-11  0.0000000000000000e+00 4.4837493163895810e-10 3.1905423374631350e-11  0.0000000000000000e+00 4.6807922963696375e-10 4.6524646858108506e-11  0.0000000000000000e+00 4.6577083595963056e-10 1.0972256815498311e-10  0.0000000000000000e+00 4.6425323825475508e-10 8.5173842734896501e-11  0.0000000000000000e+00 4.6597394858722464e-10 5.9855982409264108e-11  0.0000000000000000e+00 4.6101770239046544e-10 1.0702291799410273e-11  0.0000000000000000e+00 4.6867216673670667e-10 3.4200579831835643e-11  0.0000000000000000e+00 4.4992078163701080e-10 9.1303718903614594e-11  0.0000000000000000e+00 4.6557677714795790e-10 3.1543808110917381e-11  0.0000000000000000e+00 4.5290816420368593e-10 4.4493922247616570e-11  0.0000000000000000e+00 4.5009505449153717e-10 5.0634458397181620e-11  0.0000000000000000e+00 4.5442310529139127e-10 1.0069472305752680e-10  0.0000000000000000e+00 4.4915316416615524e-10 5.9908453712824633e-11  0.0000000000000000e+00 4.4582796233197591e-10 6.8903180552718702e-11  0.0000000000000000e+00 4.4692227442840775e-10 6.7064794882227557e-11  0.0000000000000000e+00 4.5614474556865243e-10 1.0267542438163887e-10  0.0000000000000000e+00 4.5522159051042861e-10 1.8336673669167095e-11  0.0000000000000000e+00 4.6616866326127401e-10 5.8037351406822757e-11  0.0000000000000000e+00 4.5117575973461851e-10 9.3458792458450566e-11  0.0000000000000000e+00 4.6547989668747112e-10 4.1084507933464777e-11  0.0000000000000000e+00 4.6513447227069431e-10 7.8473359658667968e-11  0.0000000000000000e+00 4.6793069050860930e-10 -1.9278767825810190e-11  0.0000000000000000e+00 4.4948898218994513e-10 7.9156330074161384e-11  0.0000000000000000e+00 4.4693397530087645e-10 5.6514347231368727e-11  0.0000000000000000e+00 4.4477357898388449e-10 7.0782163415948458e-11  0.0000000000000000e+00 4.6475744879732754e-10 5.2935082505248741e-11  0.0000000000000000e+00 4.6268933365665617e-10 2.5964776863857970e-11  0.0000000000000000e+00 4.4908742989852368e-10 7.7054515232233487e-11  0.0000000000000000e+00 4.4761504589545931e-10 6.1910001603369000e-11  0.0000000000000000e+00 4.4717636402829247e-10 5.4278134397312084e-11  0.0000000000000000e+00 4.4825370537281753e-10 2.4713205541240159e-11  0.0000000000000000e+00 4.6477407692304091e-10 9.2475637694538552e-11  0.0000000000000000e+00 4.5312094223032019e-10 4.2387014182465448e-11  0.0000000000000000e+00 4.6692569768917876e-10 5.6035188513912040e-11  0.0000000000000000e+00 4.4963166672356124e-10 8.1353275309570243e-11  0.0000000000000000e+00 4.5907574970792027e-10 1.1569591797457735e-10  0.0000000000000000e+00 4.6928574898693622e-10 9.8857051839188346e-11  0.0000000000000000e+00 4.5640283475988432e-10 1.0944889143009404e-10  0.0000000000000000e+00 4.6907244696241874e-10 6.2677065163505938e-11  0.0000000000000000e+00 4.6818624752218395e-10 6.4638503741461622e-11  0.0000000000000000e+00 4.5016269062931546e-10 2.3162162744046061e-11  0.0000000000000000e+00 4.4850328593586822e-10 7.4881949582529860e-11  0.0000000000000000e+00 4.6809501345425027e-10 4.4455341083896548e-11  0.0000000000000000e+00 4.4568453528307469e-10 3.3071193994980454e-11  0.0000000000000000e+00 4.6495951159465270e-10 2.7748838605633849e-11  0.0000000000000000e+00 4.6824869524665398e-10 1.0305357206413952e-10  0.0000000000000000e+00 4.6128387640221220e-10 -7.3787598757616624e-12  0.0000000000000000e+00 4.5791758523348786e-10 -6.9433133074220127e-12  0.0000000000000000e+00 4.6013738927833525e-10 -5.3361233971582509e-12  0.0000000000000000e+00 4.6904288869981137e-10 3.5819169248204400e-11  0.0000000000000000e+00 4.6637235098479361e-10 5.0944685069884894e-11  0.0000000000000000e+00 4.6479116941708142e-10 1.0899655364942689e-11  0.0000000000000000e+00 4.6624688533864681e-10 1.2504084599048876e-11  0.0000000000000000e+00 4.5272774645138587e-10 4.0442767947255933e-11  0.0000000000000000e+00 4.5322303295103985e-10 1.6902024346862037e-11  0.0000000000000000e+00 4.7097394433812138e-10 1.0110538939500316e-10  0.0000000000000000e+00 4.6873895572495068e-10 1.0823657693138996e-10  0.0000000000000000e+00 4.5773565695545703e-10 -1.6689464419685248e-11  0.0000000000000000e+00 4.5924578696938927e-10 -1.4926985337366803e-11  0.0000000000000000e+00 4.6137430555692398e-10 -1.6983265851602119e-11  0.0000000000000000e+00 4.5844112312717083e-10 -1.8316016067686518e-11  0.0000000000000000e+00 4.6829757180435984e-10 4.8783422793017190e-11  0.0000000000000000e+00 4.4618222376792145e-10 2.3322911524735609e-11  0.0000000000000000e+00 4.5349036140553176e-10 1.0428057644510713e-10  0.0000000000000000e+00 4.5196751229263701e-10 3.5454937600220377e-11  0.0000000000000000e+00 4.5864121720998259e-10 -2.0122715460547451e-11  0.0000000000000000e+00 4.4322822990917087e-10 5.5529536764527838e-11  0.0000000000000000e+00 4.7106428813702600e-10 7.4239467808408449e-11  0.0000000000000000e+00 4.4749506978763954e-10 3.0275714802873670e-11  0.0000000000000000e+00 4.5371736940568710e-10 1.1112033243145425e-10  0.0000000000000000e+00 4.5360848525295485e-10 3.7220806979682954e-11  0.0000000000000000e+00 4.4581060948682207e-10 8.8564927055475317e-11  0.0000000000000000e+00 4.4598706522364124e-10 8.6581846605125728e-11  0.0000000000000000e+00 4.6364414131316840e-10 2.2627551576009541e-11  0.0000000000000000e+00 4.6528910197652478e-10 6.8331911776995496e-11  0.0000000000000000e+00 4.5471048307040018e-10 -1.5695307816820392e-11  0.0000000000000000e+00 4.4593408187380997e-10 6.3830135161338109e-11  0.0000000000000000e+00 4.4940206268493650e-10 4.3570017521132434e-11  0.0000000000000000e+00 4.6645152671060966e-10 3.9130106221698584e-11  0.0000000000000000e+00 4.6975842094892292e-10 7.1333739810870066e-11  0.0000000000000000e+00 4.7148875561699550e-10 7.2614995143890992e-11  0.0000000000000000e+00 4.5478400840817692e-10 1.1303845643865295e-10  0.0000000000000000e+00 4.6745481890177230e-10 7.9950995330132427e-