<?xml version="1.0"?>
<VTKFile type="UnstructuredGrid"  version="0.1"  >
<UnstructuredGrid>
<Piece  NumberOfPoints="10102" NumberOfCells="19938">
<Points>
<DataArray  type="Float64"  NumberOfComponents="3"  format="ascii">3.094387000623446e-23 9.362176028589572e-07 1.049999999999998e-07  3.10545148279091e-23 9.37214202814286e-07 1.049999999999998e-07  3.104604218909993e-23 9.366170237105078e-07 1.044791356421893e-07  3.083322518455982e-23 9.352210029036284e-07 1.049999999999998e-07  3.095512173311036e-23 9.357173904345722e-07 1.043984410296837e-07  3.072258036288518e-23 9.342244029482996e-07 1.049999999999998e-07  3.086463171054106e-23 9.347789206024705e-07 1.042750328614297e-07  3.059632895162771e-23 9.330872313309114e-07 1.049999999999998e-07  3.075947029412553e-23 9.337348712932476e-07 1.041781933837722e-07  3.044975623160136e-23 9.317670216363246e-07 1.049999999999998e-07  3.063903409232463e-23 9.325055537365178e-07 1.040336686941473e-07  3.028316687981452e-23 9.302665181510625e-07 1.049999999999998e-07  3.050032863555032e-23 9.310628064616588e-07 1.038402691061744e-07  3.010603849382264e-23 9.286710874847629e-07 1.049999999999998e-07  3.03427994722671e-23 9.294660556925816e-07 1.036624148992218e-07  2.990582970273149e-23 9.268677670108541e-07 1.049999999999998e-07  3.015866717742381e-23 9.276454888355242e-07 1.035003643110506e-07  2.965009987018127e-23 9.245643574536929e-07 1.049999999999998e-07  2.995570209245911e-23 9.256264007947319e-07 1.033094232322908e-07  2.936922844892102e-23 9.220344925974394e-07 1.049999999999998e-07  2.970520031681734e-23 9.232186528971138e-07 1.031579947415445e-07  2.907846410483031e-23 9.194155202140404e-07 1.049999999999998e-07  2.94394143556429e-23 9.208425938058328e-07 1.031759227616746e-07  2.829751699895409e-23 9.12381374024e-07 1.049999999999998e-07  2.871480795986355e-23 9.161399968561137e-07 1.049999999999998e-07  2.889777749075006e-23 9.142568662279411e-07 1.014688263495859e-07  2.78283854967732e-23 9.081558131071807e-07 1.049999999999998e-07  2.843264916062678e-23 9.098796884203227e-07 1.012811520904129e-07  2.722746484270379e-23 9.027432010396881e-07 1.049999999999998e-07  2.790434448377107e-23 9.047830409331678e-07 1.00943050094909e-07  2.658876551113481e-23 8.969903088963765e-07 1.049999999999998e-07  2.733213812717208e-23 8.993518775028901e-07 1.006658633333476e-07  2.587413663226682e-23 8.905535041912203e-07 1.049999999999998e-07  2.67404801076417e-23 8.941443876442403e-07 1.007875551472734e-07  2.414672788881825e-23 8.749943894445973e-07 1.049999999999998e-07  2.505234248150101e-23 8.83151440528892e-07 1.049999999999998e-07  2.539580494672813e-23 8.788943873176128e-07 9.764931192789539e-08  2.440660507046355e-23 8.694357510350442e-07 9.710059603360698e-08  3.111347616068899e-23 9.372017299640655e-07 1.044564506771058e-07  3.116515964958374e-23 9.382108027696148e-07 1.049999999999998e-07  3.116710283519918e-23 9.377893259728444e-07 1.045610205432023e-07  2.930618399494245e-23 9.182097378505417e-07 1.017430992119935e-07  2.643632526516861e-23 8.883599417560745e-07 9.77426925295571e-08  3.121627217655906e-23 9.382801874862426e-07 1.046090040017476e-07  3.123086934728239e-23 9.381334313005722e-07 1.043307681908167e-07  3.121972996744241e-23 9.37865119956152e-07 1.041627914601895e-07  3.107037656909137e-23 9.362283351293663e-07 1.038712624517243e-07  3.090336851611943e-23 9.343667458984256e-07 1.035139480310483e-07  3.118038442597833e-23 9.374622135912391e-07 1.041142782270293e-07  3.040907053576723e-23 9.286460986704096e-07 1.022455412032805e-07  3.022994499388832e-23 9.265957866687302e-07 1.018086486489179e-07  3.003173516221399e-23 9.243870830170066e-07 1.013852604453337e-07  2.97540204361387e-23 9.215970002237504e-07 1.010966095258135e-07  2.668250594107438e-23 8.834044426930997e-07 9.056979506603225e-08  2.85760971564122e-23 9.070901470905756e-07 9.719954607993323e-08  2.804529672152557e-23 9.017989204775585e-07 9.668934474844323e-08  2.743306337873163e-23 8.95757917485563e-07 9.616284946538884e-08  3.113182073105943e-23 9.369283539015787e-07 1.040178414140498e-07  3.080653517533485e-23 9.332487835607567e-07 1.032681828883283e-07  3.069667074462496e-23 9.31908958922628e-07 1.029179290686122e-07  2.944331999723571e-23 9.161009782875222e-07 9.839912835131999e-08  3.057064640190419e-23 9.304154020327204e-07 1.025594985445384e-07  2.904537530200729e-23 9.119147529249103e-07 9.779727015099761e-08  2.573995606418084e-23 8.741608439010064e-07 8.981593082265064e-08  3.127487854026913e-23 9.384922599788224e-07 1.04293197298795e-07  3.098896966459999e-23 9.353350395328535e-07 1.037112150646771e-07  2.764972498851277e-23 8.920224782134482e-07 9.047589590312237e-08  2.478671039944208e-23 8.640513390906559e-07 8.829249965332025e-08  3.125221227988135e-23 9.386957541063042e-07 1.047008509499494e-07  2.981903383174019e-23 9.198678297136189e-07 9.878185040727199e-08  3.127301312328486e-23 9.381739139466629e-07 1.03991653449106e-07  3.11114439672706e-23 9.359282241546658e-07 1.032012492387497e-07  3.127580447125837e-23 9.392074027249435e-07 1.049999999999998e-07  3.066104553402935e-23 9.297889682405146e-07 1.011188217568256e-07  3.050835156741006e-23 9.277330696440902e-07 1.004382681427379e-07  2.821913693764975e-23 8.989710867287309e-07 9.229569753449781e-08  2.62208124351757e-23 8.702120423398863e-07 8.153596011506813e-08  2.53897987168427e-23 8.596351539543613e-07 7.844417787399169e-08  3.034412842374417e-23 9.25708566636763e-07 9.989295571264931e-08  3.121603812636963e-23 9.373070941809123e-07 1.036380188331091e-07  3.088101752512528e-23 9.327955163481851e-07 1.02144038310233e-07  2.877626150068257e-23 9.046684048178427e-07 9.297488367466251e-08  3.125327390485806e-23 9.377914251074998e-07 1.037869596834459e-07  3.096661257820764e-23 9.34009653357073e-07 1.02587203620788e-07  3.130186195213771e-23 9.388342100056898e-07 1.043921023583894e-07  3.10441412813343e-23 9.350496571930778e-07 1.029288909797692e-07  3.077495537346166e-23 9.31377241224256e-07 1.016810861197246e-07  3.116915099221255e-23 9.366883637009296e-07 1.034416101129631e-07  3.12998688059246e-23 9.390869570504827e-07 1.046628020682676e-07  3.011839011208653e-23 9.230196732719372e-07 9.923733230035271e-08  2.781923515978233e-23 8.869568458054506e-07 8.38834516067946e-08  2.962524125372252e-23 9.139636915864694e-07 9.462324064441758e-08  2.924300876197139e-23 9.096711294753302e-07 9.377352274811689e-08  3.133223740688384e-23 9.387859135987271e-07 1.04070208178075e-07  3.134726029214558e-23 9.390355526249373e-07 1.041845330833516e-07  3.138009549841097e-23 9.390545998311555e-07 1.039078270441669e-07  3.132479573288466e-23 9.38501150986321e-07 1.038524742061682e-07  3.002886253202275e-23 9.182773577650167e-07 9.530140954586145e-08  3.138682392967571e-23 9.392727216777217e-07 1.040653445696598e-07  3.132733791707593e-23 9.390658619052106e-07 1.043942871655049e-07  3.137467177237918e-23 9.388284284575507e-07 1.037305082516335e-07  2.697644214216812e-23 8.788659444241695e-07 8.338375486566916e-08  3.135901888451731e-23 9.392402211991026e-07 1.042832896730694e-07  3.128802364184399e-23 9.376792848000801e-07 1.033618215709441e-07  3.116567352908142e-23 9.357033350178587e-07 1.024879036332152e-07  3.110979790657619e-23 9.347721884224752e-07 1.02060039903219e-07  3.089186945049125e-23 9.309117861346535e-07 1.001625626426325e-07  3.260354233135407e-23 9.511666021888888e-07 1.049999999999998e-07  3.271418715302871e-23 9.521632021442176e-07 1.049999999999998e-07  3.267957579573682e-23 9.516403740541438e-07 1.047889233015311e-07  3.149709411460766e-23 9.412006026356011e-07 1.049999999999998e-07  3.16077389362823e-23 9.421972025909299e-07 1.049999999999998e-07  3.157148429809069e-23 9.416631143024951e-07 1.047924644616655e-07  2.869365997733051e-23 8.939035967223672e-07 8.295408395876416e-08  3.122042904109843e-23 9.365122236889898e-07 1.028035984973138e-07  2.906850448877368e-23 9.025610544023264e-07 8.82352424346087e-08  3.09830393011985e-23 9.325247456550362e-07 1.009543371516701e-07  3.272198103681516e-23 9.519638223959911e-07 1.047304191875405e-07  3.274920015844918e-23 9.521907897081854e-07 1.047122184476381e-07  3.275374641828763e-23 9.520613117236846e-07 1.045417913949087e-07  3.27210132606659e-23 9.517964905197089e-07 1.045718042638687e-07  3.161948039711236e-23 9.420403125177722e-07 1.047373522496042e-07  3.164117778998968e-23 9.422977342104129e-07 1.047993412012905e-07  3.161154037377248e-23 9.418082370281125e-07 1.04576794132254e-07  3.165092501840075e-23 9.422214268357494e-07 1.046352385981469e-07  3.164566764816655e-23 9.420599989883581e-07 1.04521164932011e-07  3.27594348706251e-23 9.519290090988185e-07 1.043582517463878e-07  3.278336147567785e-23 9.523089253381181e-07 1.045226562864878e-07  3.26445230768217e-23 9.512736038298922e-07 1.047378799009685e-07  3.153531351494835e-23 9.413023167733706e-07 1.047574643835041e-07  3.26368257978217e-23 9.510888282405854e-07 1.04622435237334e-07  3.260586202403483e-23 9.509809397975574e-07 1.04793443674483e-07  3.152579890228478e-23 9.411170800835628e-07 1.046579277057887e-07  3.149719502703533e-23 9.410097661931505e-07 1.04808254619206e-07  3.266803843225584e-23 9.512524286833265e-07 1.045048972624614e-07  3.155591371193344e-23 9.412658072704003e-07 1.045354048016021e-07  3.157838910200469e-23 9.415155075269108e-07 1.045826647414128e-07  3.268842474397251e-23 9.515011136760917e-07 1.045699586835253e-07  3.264979651727202e-23 9.510231409951963e-07 1.044399181373786e-07  3.153629872428038e-23 9.410660086331021e-07 1.045122822664743e-07  3.150873540086929e-23 9.409309033736251e-07 1.046254453530839e-07  3.261868731384009e-23 9.508963238548136e-07 1.045933077909634e-07  3.16777177511348e-23 9.422942927095501e-07 1.04466776989633e-07  3.16747340701807e-23 9.424412082513453e-07 1.046405671402945e-07  3.277667593614333e-23 9.524497610965912e-07 1.047237100316737e-07  3.281213799319242e-23 9.525458666528807e-07 1.045004017741392e-07  3.262910760992525e-23 9.50801188065872e-07 1.
[...]
<PointData  Tensors="f_45"> 
<DataArray  type="Float64"  Name="f_45"  NumberOfComponents="9" format="ascii">0.0000000000000000e+00 5.5919594434303308e-19 6.8268072519323008e-19 5.5919594434303308e-19 -4.0339846345976722e-03 3.2858796625954617e-05 6.8268072519323008e-19 3.2858796625954617e-05 1.8751981757576467e-03  0.0000000000000000e+00 6.6891891061297986e-19 7.8652453192011137e-19 6.6891891061297986e-19 -3.9613261744259358e-03 7.3670728878545425e-06 7.8652453192011137e-19 7.3670728878545425e-06 1.8574657910207469e-03  0.0000000000000000e+00 6.4721218924047640e-19 7.4125488810703568e-19 6.4721218924047640e-19 -3.1935650338599602e-03 -3.6371091751007638e-05 7.4125488810703568e-19 -3.6371091751007638e-05 1.4267001960678778e-03  0.0000000000000000e+00 4.8997634209894912e-19 6.1144497614479843e-19 4.8997634209894912e-19 -3.9696964505730563e-03 2.0846637141732453e-05 6.1144497614479843e-19 2.0846637141732453e-05 1.8232053447519213e-03  0.0000000000000000e+00 5.7276769728118124e-19 6.7202866463690586e-19 5.7276769728118124e-19 -3.1234412006029351e-03 3.4046433013881823e-05 6.7202866463690586e-19 3.4046433013881823e-05 1.4034074442473342e-03  0.0000000000000000e+00 4.3604466454604506e-19 5.5326483068128338e-19 4.3604466454604506e-19 -3.8948015577970133e-03 -1.0346558819817784e-05 5.5326483068128338e-19 -1.0346558819817784e-05 1.7624576540489758e-03  0.0000000000000000e+00 5.0616785662788272e-19 6.0496314739405304e-19 5.0616785662788272e-19 -3.1391008777038407e-03 3.0646056298687687e-05 6.0496314739405304e-19 3.0646056298687687e-05 1.4206552515790829e-03  0.0000000000000000e+00 3.8060892787913766e-19 4.9714261630473457e-19 3.8060892787913766e-19 -3.8494631166491730e-03 -5.0121903051997354e-06 4.9714261630473457e-19 -5.0121903051997354e-06 1.7401544329595725e-03  0.0000000000000000e+00 4.4910913627906154e-19 5.4606645344614676e-19 4.4910913627906154e-19 -3.1202739654010254e-03 2.4318309515084356e-05 5.4606645344614676e-19 2.4318309515084356e-05 1.4222828345729921e-03  0.0000000000000000e+00 3.2881793710065148e-19 4.4443111094634209e-19 3.2881793710065148e-19 -3.7681594515610985e-03 4.9638239687441095e-06 4.4443111094634209e-19 4.9638239687441095e-06 1.6953853128967983e-03  0.0000000000000000e+00 3.9443098759210604e-19 4.8996235537927059e-19 3.9443098759210604e-19 -3.0746473912261333e-03 2.2894018862149132e-05 4.8996235537927059e-19 2.2894018862149132e-05 1.3994952994767864e-03  0.0000000000000000e+00 2.8141783661877643e-19 3.9641065572442673e-19 2.8141783661877643e-19 -3.6827869790396687e-03 1.7682434215458576e-05 3.9641065572442673e-19 1.7682434215458576e-05 1.6466253783728373e-03  0.0000000000000000e+00 3.4434833511703618e-19 4.3669254539015684e-19 3.4434833511703618e-19 -3.0164346231997636e-03 1.2000690961929569e-05 4.3669254539015684e-19 1.2000690961929569e-05 1.3769106012206569e-03  0.0000000000000000e+00 2.3888037481345547e-19 3.5230460077700906e-19 2.3888037481345547e-19 -3.5987541200219650e-03 1.8677043495126091e-05 3.5230460077700906e-19 1.8677043495126091e-05 1.5928389998754533e-03  0.0000000000000000e+00 2.9966024008390680e-19 3.8734939492356402e-19 2.9966024008390680e-19 -2.9524112914097191e-03 -1.4470550529395622e-05 3.8734939492356402e-19 -1.4470550529395622e-05 1.3438028101095867e-03  0.0000000000000000e+00 1.9911847252881180e-19 3.0649111128484997e-19 1.9911847252881180e-19 -3.5252858895894433e-03 8.1531417804632130e-07 3.0649111128484997e-19 8.1531417804632130e-07 1.5926630143797322e-03  0.0000000000000000e+00 2.5461741455290653e-19 3.4149436085481881e-19 2.5461741455290653e-19 -2.9008311553402398e-03 -1.0374748100315923e-05 3.4149436085481881e-19 -1.0374748100315923e-05 1.3150457271701534e-03  0.0000000000000000e+00 1.6062392209605420e-19 2.6248694842443761e-19 1.6062392209605420e-19 -3.4000744938536419e-03 -1.1505253034281480e-05 2.6248694842443761e-19 -1.1505253034281480e-05 1.5420628381236322e-03  0.0000000000000000e+00 2.1195995818757212e-19 2.9477226217574132e-19 2.1195995818757212e-19 -2.8580766277410529e-03 -3.1494851945158849e-05 2.9477226217574132e-19 -3.1494851945158849e-05 1.3032730783194397e-03  0.0000000000000000e+00 1.2134839828228527e-19 2.1889400413927757e-19 1.2134839828228527e-19 -3.3349174247378432e-03 -3.3383973681710971e-05 2.1889400413927757e-19 -3.3383973681710971e-05 1.5109240606176202e-03  0.0000000000000000e+00 1.7160563458680774e-19 2.5447831547977764e-19 1.7160563458680774e-19 -2.7575419777674227e-03 -1.2571958293050258e-05 2.5447831547977764e-19 -1.2571958293050258e-05 1.2394965620261100e-03  0.0000000000000000e+00 8.1400265713113374e-20 1.8320965423169983e-19 8.1400265713113374e-20 -3.2291284619449575e-03 3.8540622859723583e-05 1.8320965423169983e-19 3.8540622859723583e-05 1.4721748108836555e-03  0.0000000000000000e+00 1.3945674525834780e-19 2.1437415963713289e-19 1.3945674525834780e-19 -2.6634483855021351e-03 -5.0717331549667755e-05 2.1437415963713289e-19 -5.0717331549667755e-05 1.2124215644832375e-03  0.0000000000000000e+00 3.8953308573952635e-20 1.2063272627454093e-19 3.8953308573952635e-20 -2.7059744510878341e-03 -2.7369402790004484e-05 1.2063272627454093e-19 -2.7369402790004484e-05 1.1798300650269588e-03  0.0000000000000000e+00 6.9265675270968779e-20 1.5515763588786051e-19 6.9265675270968779e-20 -2.8673554163703174e-03 -2.1980961750750155e-05 1.5515763588786051e-19 -2.1980961750750155e-05 1.2761014855553518e-03  0.0000000000000000e+00 8.8202480492908807e-20 1.4425798492491104e-19 8.8202480492908807e-20 -2.1970547876705685e-03 -8.9886921488512678e-05 1.4425798492491104e-19 -8.9886921488512678e-05 1.0074747492054218e-03  0.0000000000000000e+00 1.4055180217819404e-20 8.7146143620109903e-20 1.4055180217819404e-20 -2.4628718319923623e-03 -2.7254215921321631e-05 8.7146143620109903e-20 -2.7254215921321631e-05 1.0916736579787520e-03  0.0000000000000000e+00 6.2424767987124051e-20 1.0800139873962901e-19 6.2424767987124051e-20 -2.0063075654308104e-03 -1.3331913511700720e-04 1.0800139873962901e-19 -1.3331913511700720e-04 9.1863370610160196e-04  0.0000000000000000e+00 -4.4690248537486358e-21 5.8136736960786963e-20 -4.4690248537486358e-21 -2.1802953844418053e-03 -3.6504936782977404e-05 5.8136736960786963e-20 -3.6504936782977404e-05 9.7948036855908345e-04  0.0000000000000000e+00 3.6529740256381912e-20 7.4090759643763039e-20 3.6529740256381912e-20 -1.8250558203640563e-03 -1.5152224399200281e-04 7.4090759643763039e-20 -1.5152224399200281e-04 8.4537216071338243e-04  0.0000000000000000e+00 -1.5034711525846935e-20 3.1517694511525732e-20 -1.5034711525846935e-20 -1.8765110190602004e-03 -8.3496258913452257e-05 3.1517694511525732e-20 -8.3496258913452257e-05 8.7090490730089894e-04  0.0000000000000000e+00 1.7214177414920021e-20 4.9852362710859126e-20 1.7214177414920021e-20 -1.5788417839440996e-03 -1.4510141281060836e-04 4.9852362710859126e-20 -1.4510141281060836e-04 7.0068168177556166e-04  0.0000000000000000e+00 -2.8774758134740769e-20 1.1868814574549299e-20 -2.8774758134740769e-20 -1.5972478381728113e-03 -5.9829873916271210e-05 1.1868814574549299e-20 -5.9829873916271210e-05 7.4541857470602590e-04  0.0000000000000000e+00 2.9401874629912600e-21 2.6266084127400667e-20 2.9401874629912600e-21 -1.3400936135760583e-03 -1.5485880121304170e-04 2.6266084127400667e-20 -1.5485880121304170e-04 6.1017401304632509e-04  0.0000000000000000e+00 -2.4884714819679867e-20 -7.7828099072785907e-21 -2.4884714819679867e-20 -8.0197124638172303e-04 -7.1379586659599015e-05 -7.7828099072785907e-21 -7.1379586659599015e-05 3.5113154269925942e-04  0.0000000000000000e+00 -2.3879390268107592e-20 2.8743321955495788e-21 -2.3879390268107592e-20 -1.1005851870643376e-03 -6.5107305560861199e-05 2.8743321955495788e-21 -6.5107305560861199e-05 4.8841835787021568e-04  0.0000000000000000e+00 -3.2547756435560582e-21 -2.3816642487542492e-21 -3.2547756435560582e-21 -6.7859613865080639e-04 -1.8807890661389062e-04 -2.3816642487542492e-21 -1.8807890661389062e-04 2.8670974881389420e-04  0.0000000000000000e+00 -5.9289302454013493e-21 -1.0525678001735182e-20 -5.9289302454013493e-21 -4.2737204729048292e-04 -1.6346266070095726e-04 -1.0525678001735182e-20 -1.6346266070095726e-04 1.8325437181873188e-04  0.0000000000000000e+00 7.2275303678104660e-19 8.2738305412551321e-19 7.2275303678104660e-19 -2.8411451485643602e-03 1.2310415953870079e-04 8.2738305412551321e-19 1.2310415953870079e-04 1.2025066391451601e-03  0.0000000000000000e+00 7.8032838434058585e-19 8.9372491926672449e-19 7.8032838434058585e-19 -4.4386277241598064e-03 -9.0860087241338049e-05 8.9372491926672449e-19 -9.0860087241338049e-05 2.2141371799221750e-03  0.0000000000000000e+00 7.8322702031018794e-19 8.8660032704349811e-19 7.8322702031018794e-19 -3.0991768967298509e-03 5.3834004747092808e-05 8.8660032704349811e-19 5.3834004747092808e-05 1.3446369634868879e-03  0.0000000000000000e+00 1.2513195899448715e-19 1.8712526384968042e-19 1.2513195899448715e-19 -2.3110176671075830e-03 -6.3983409703908915e-05 1.8712526384968042e-19 -6.3983409703908915e-05 1.0662787491184593e-03  0.0000000000000000e+00 9.4912692329795869e-21 1.2873840097248179e-20 9.4912692329795869e-21 -9.2955674341577686e-04 -2.2420008844240471e-04 1.2873840097248179e-20 -2.2420008844240471e-04 4.2022158699546550e-04  0.0000000000000000e+00 9.0819001260317518e-19 1.0244833770935997e-18 9.0819001260317518e-19 -2.4794882639463840e-03 2.0035529614291519e-04 1.0244833770935997e-18 2.0035529614291519e-04 7.8524384429280096e-04  0.0000000000000000e+00 8.8027510458478346e-19 9.6542751314656241e-19 8.8027510458478346e-19 -2.1391685227362869e-03 2.2277718626442637e-04 9.6542751314656241e-19 2.2277718626442637e-04 1.0507534733896389e-03  0.0000000000000000e+00 8.6268674507165588e-19 9.4666973298190357e-19 8.6268674507165588e-19 -1.6936858812195705e-03 2.9495482428992836e-04 9.4666973298190357e-19 2.9495482428992836e-04 7.7069251756696131e-04  0.0000000000000000e+00 6.4430419215059426e-19 7.3125050542018124e-19 6.4430419215059426e-19 -2.3195188395739820e-03 1.6559930847012984e-04 7.3125050542018124e-19 1.6559930847012984e-04 1.0844319203450470e-03  0.0000000000000000e+00 5.1642451371486393e-19 6.0153194929468526e-19 5.1642451371486393e-19 -2.4076415045145945e-03 1.1169107042434795e-04 6.0153194929468526e-19 1.1169107042434795e-04 1.0978643847084774e-03  0.0000000000000000e+00 7.8778067503891688e-19 8.6881141957961673e-19 7.8778067503891688e-19 -2.1671298679646757e-03 1.6458663373647694e-04 8.6881141957961673e-19 1.6458663373647694e-04 1.0365830117612064e-03  0.0000000000000000e+00 3.0718902796861452e-19 3.8255104911498251e-19 3.0718902796861452e-19 -2.2960465074387554e-03 5.4769222882086488e-05 3.8255104911498251e-19 5.4769222882086488e-05 1.0479834717923532e-03  0.0000000000000000e+00 2.6341553995973555e-19 3.3237873531021306e-19 2.6341553995973555e-19 -2.2681508037828329e-03 1.2462552397873534e-05 3.3237873531021306e-19 1.2462552397873534e-05 1.0507454250478186e-03  0.0000000000000000e+00 2.2275722981698498e-19 2.8629122827833480e-19 2.2275722981698498e-19 -2.1986180181791026e-03 -2.1506955548437180e-05 2.8629122827833480e-19 -2.1506955548437180e-05 1.0110773398986860e-03  0.0000000000000000e+00 1.7874027242115538e-19 2.3856478289551419e-19 1.7874027242115538e-19 -2.2305019661218108e-03 -7.5260211265803132e-05 2.3856478289551419e-19 -7.5260211265803132e-05 1.0022789712704240e-03  0.0000000000000000e+00 3.4732646635893294e-20 9.3149000809430869e-21 3.4732646635893294e-20 -4.3144772202288880e-04 -3.6143161985266437e-04 9.3149000809430869e-21 -3.6143161985266437e-04 1.6646989797144618e-04  0.0000000000000000e+00 8.1921837220000442e-20 9.8430851404377698e-20 8.1921837220000442e-20 -1.4173850769348118e-03 -2.3037344503216479e-04 9.8430851404377698e-20 -2.3037344503216479e-04 6.5923822635446797e-04  0.0000000000000000e+00 5.7780418210721721e-20 6.5121969609250413e-20 5.7780418210721721e-20 -1.2496285603436289e-03 -2.6790410022067346e-04 6.5121969609250413e-20 -2.6790410022067346e-04 5.8156672733136662e-04  0.0000000000000000e+00 3.6967034424915912e-20 3.9174366066270148e-20 3.6967034424915912e-20 -1.0887400225063682e-03 -2.8690000120574734e-04 3.9174366066270148e-20 -2.8690000120574734e-04 4.7517626826491425e-04  0.0000000000000000e+00 7.1737798672544878e-19 8.0625336231241219e-19 7.1737798672544878e-19 -2.1859596805927318e-03 2.1864091098999222e-04 8.0625336231241219e-19 2.1864091098999222e-04 1.0222050690688693e-03  0.0000000000000000e+00 4.5975700103600572e-19 5.4252151963623620e-19 4.5975700103600572e-19 -2.3950831147474161e-03 9.7689064086973107e-05 5.4252151963623620e-19 9.7689064086973107e-05 1.0995082224117079e-03  0.0000000000000000e+00 4.0586179727099232e-19 4.8597609899909801e-19 4.0586179727099232e-19 -2.3659203449564268e-03 8.4369064734724544e-05 4.8597609899909801e-19 8.4369064734724544e-05 1.0914475167869934e-03  0.0000000000000000e+00 1.4405574876544725e-19 1.7729222191574150e-19 1.4405574876544725e-19 -1.6397923653434436e-03 -1.3551377194561816e-04 1.7729222191574150e-19 -1.3551377194561816e-04 7.7002974907308794e-04  0.0000000000000000e+00 3.5512915964334769e-19 4.3208051641635031e-19 3.5512915964334769e-19 -2.3492414073290513e-03 6.0786726564033110e-05 4.3208051641635031e-19 6.0786726564033110e-05 1.0845824537027730e-03  0.0000000000000000e+00 1.0924157553342823e-19 1.3406276221563222e-19 1.0924157553342823e-19 -1.5545501215158079e-03 -1.8597542083681210e-04 1.3406276221563222e-19 -1.8597542083681210e-04 7.3546053147072405e-04  0.0000000000000000e+00 2.1408290763639712e-20 -1.9571779624988796e-21 2.1408290763639712e-20 -2.6162041270128055e-04 -3.0377417958471400e-04 -1.9571779624988796e-21 -3.0377417958471400e-04 7.4986918525351485e-05  0.0000000000000000e+00 9.9179491878296160e-19 1.0798958456677950e-18 9.9179491878296160e-19 -1.4035451317172714e-03 4.2042175661980178e-04 1.0798958456677950e-18 4.2042175661980178e-04 6.5730343899891765e-04  0.0000000000000000e+00 5.7727981328532474e-19 6.6383937633366597e-19 5.7727981328532474e-19 -2.3847921056807590e-03 1.3657154682277778e-04 6.6383937633366597e-19 1.3657154682277778e-04 1.0986167357677718e-03  0.0000000000000000e+00 5.5964347491346424e-20 3.1970210263954258e-20 5.5964347491346424e-20 -5.2739400450897039e-04 -3.6370055497243710e-04 3.1970210263954258e-20 -3.6370055497243710e-04 2.3223284446953864e-04  0.0000000000000000e+00 1.2373559605246721e-20 -7.8768828964563356e-21 1.2373559605246721e-20 -1.1942117686683934e-04 -2.4192631103078544e-04 -7.8768828964563356e-21 -2.4192631103078544e-04 3.6809602429950799e-07  0.0000000000000000e+00 9.4311968291843119e-19 1.0232247032118086e-18 9.4311968291843119e-19 -3.6866402115577480e-03 -3.2279183107348987e-04 1.0232247032118086e-18 -3.2279183107348987e-04 1.5980127912360944e-03  0.0000000000000000e+00 1.7929603416506916e-19 2.2460983227106373e-19 1.7929603416506916e-19 -1.6643895468178567e-03 -2.3394618489518759e-05 2.2460983227106373e-19 -2.3394618489518759e-05 8.0129949277927713e-04  0.0000000000000000e+00 9.1160961443378648e-19 1.0053205253230802e-18 9.1160961443378648e-19 -1.1734070361692501e-03 5.8939259553485374e-04 1.0053205253230802e-18 5.8939259553485374e-04 6.6404653379072284e-04  0.0000000000000000e+00 6.4280397692368742e-19 7.2802725207091133e-19 6.4280397692368742e-19 -1.5967109365546063e-03 3.8003135550323402e-04 7.2802725207091133e-19 3.8003135550323402e-04 8.2152760677616909e-04  0.0000000000000000e+00 1.1790406878849956e-18 1.3125013365341322e-18 1.1790406878849956e-18 -3.5390187671621074e-03 8.1898014275524116e-05 1.3125013365341322e-18 8.1898014275524116e-05 1.2986014856076801e-03  0.0000000000000000e+00 3.6090201063793229e-19 4.2784005672096109e-19 3.6090201063793229e-19 -1.6874287637914100e-03 1.6686491724238217e-04 4.2784005672096109e-19 1.6686491724238217e-04 8.1530996069038440e-04  0.0000000000000000e+00 3.1102831616465422e-19 3.7537926981625374e-19 3.1102831616465422e-19 -1.6990175025474582e-03 1.5317384547086410e-04 3.7537926981625374e-19 1.5317384547086410e-04 8.4612146994411067e-04  0.0000000000000000e+00 7.5503497770130809e-20 5.8136111279546221e-20 7.5503497770130809e-20 -7.3573249165187656e-04 -3.4414768367462055e-04 5.8136111279546221e-20 -3.4414768367462055e-04 3.6030014561219215e-04  0.0000000000000000e+00 3.3209456584865366e-20 2.3122803698670095e-21 3.3209456584865366e-20 5.4504751494020745e-05 -3.0768570816028002e-04 2.3122803698670095e-21 -3.0768570816028002e-04 -1.1328212265991093e-04  0.0000000000000000e+00 2.2388394799838113e-20 -1.1665663955726395e-21 2.2388394799838113e-20 1.2587968052323221e-04 -2.2568605222609753e-04 -1.1665663955726395e-21 -2.2568605222609753e-04 -1.5292332712591404e-04  0.0000000000000000e+00 2.6942241474626761e-19 3.2586624500575141e-19 2.6942241474626761e-19 -1.6512141837700693e-03 8.3141015313185164e-05 3.2586624500575141e-19 8.3141015313185164e-05 8.0069456270042338e-04  0.0000000000000000e+00 7.8040461981816074e-19 8.7147854188018080e-19 7.8040461981816074e-19 -1.3309139395459315e-03 5.1746716434843175e-04 8.7147854188018080e-19 5.1746716434843175e-04 7.2520634239636836e-04  0.0000000000000000e+00 4.6462996573324324e-19 5.3967030831234561e-19 4.6462996573324324e-19 -1.7145774578020995e-03 2.4331915039685220e-04 5.3967030831234561e-19 2.4331915039685220e-04 8.4940912308789521e-04  0.0000000000000000e+00 9.4186386115097465e-20 9.0020881094955161e-20 9.4186386115097465e-20 -9.2023283267788898e-04 -2.7328136502957645e-04 9.0020881094955161e-20 -2.7328136502957645e-04 4.4870917004481524e-04  0.0000000000000000e+00 8.4827467044465946e-19 9.4378324689076467e-19 8.4827467044465946e-19 -1.2011198709539551e-03 5.9753720257461494e-04 9.4378324689076467e-19 5.9753720257461494e-04 6.7566471893004123e-04  0.0000000000000000e+00 5.1867236745852777e-19 5.9912479818478957e-19 5.1867236745852777e-19 -1.7044597091570622e-03 2.9539424774780685e-04 5.9912479818478957e-19 2.9539424774780685e-04 8.4594605649276140e-04  0.0000000000000000e+00 1.0827275416246304e-18 1.1875981170328545e-18 1.0827275416246304e-18 -1.0696468944329032e-03 7.0431848978726251e-04 1.1875981170328545e-18 7.0431848978726251e-04 5.8910353668539827e-04  0.0000000000000000e+00 5.7785707436573402e-19 6.6128590569666260e-19 5.7785707436573402e-19 -1.6752035591613894e-03 3.3568612698277767e-04 6.6128590569666260e-19 3.3568612698277767e-04 8.4365559835110967e-04  0.0000000000000000e+00 4.0944623445019297e-19 4.8433669209121052e-19 4.0944623445019297e-19 -1.7053249806236060e-03 2.4959821241373348e-04 4.8433669209121052e-19 2.4959821241373348e-04 8.5541485694843743e-04  0.0000000000000000e+00 7.1450363091901442e-19 8.0134359219364010e-19 7.1450363091901442e-19 -1.4431842015492598e-03 4.3520313384139635e-04 8.0134359219364010e-19 4.3520313384139635e-04 7.4922080028317240e-04  0.0000000000000000e+00 1.3028477067585798e-18 1.3363694137941694e-18 1.3028477067585798e-18 -6.6905989520372035e-04 -4.0558245117663184e-04 1.3363694137941694e-18 -4.0558245117663184e-04 -7.4597839640803553e-04  0.0000000000000000e+00 2.2435488585352121e-19 2.7559912828504792e-19 2.2435488585352121e-19 -1.6559108048361771e-03 3.2401895786963822e-05 2.7559912828504792e-19 3.2401895786963822e-05 7.9758039193210568e-04  0.0000000000000000e+00 6.4329127198205415e-20 2.3864770708087886e-20 6.4329127198205415e-20 -1.1506150810656217e-04 -4.1115456443860908e-04 2.3864770708087886e-20 -4.1115456443860908e-04 2.1693422472070166e-05  0.0000000000000000e+00 1.4814525874957937e-19 1.6484300252638517e-19 1.4814525874957937e-19 -1.0806631044264271e-03 -1.0197402683220543e-04 1.6484300252638517e-19 -1.0197402683220543e-04 5.7591524015740468e-04  0.0000000000000000e+00 1.1974349024566466e-19 1.2409896051128951e-19 1.1974349024566466e-19 -1.0207314548934074e-03 -2.0797400235347544e-04 1.2409896051128951e-19 -2.0797400235347544e-04 5.2632227312533167e-04  0.0000000000000000e+00 1.0387386674320896e-18 1.1685695083610862e-18 1.0387386674320896e-18 -4.4724599350108883e-04 1.2310395604129454e-03 1.1685695083610862e-18 1.2310395604129454e-03 5.7050060701061781e-04  0.0000000000000000e+00 1.1035953900095022e-18 1.2483014829653882e-18 1.1035953900095022e-18 -1.4005706200668350e-04 1.607