<?xml version="1.0"?>
<VTKFile type="UnstructuredGrid"  version="0.1"  >
<UnstructuredGrid>
<Piece  NumberOfPoints="10255" NumberOfCells="20084">
<Points>
<DataArray  type="Float64"  NumberOfComponents="3"  format="ascii">3.844048242159513e-23 9.668024050202114e-07 6.806132040053538e-08  3.847771034822294e-23 9.669985028792288e-07 6.792209890657517e-08  3.846275168462127e-23 9.667995157296344e-07 6.785784742062565e-08  3.849515485966175e-23 9.66881460186319e-07 6.764793002323432e-08  3.826261808533084e-23 9.671368147404781e-07 6.999778963784674e-08  3.827047817448044e-23 9.673487965730955e-07 7.013897408133369e-08  3.829712155069505e-23 9.67289615477493e-07 6.983981078734716e-08  3.827842198569474e-23 9.6702762487079e-07 6.97462508885789e-08  3.830685169615466e-23 9.669963435244612e-07 6.945889747538301e-08  3.833147330156461e-23 9.6697145459291e-07 6.92122368379328e-08  3.829799937986237e-23 9.667855146597201e-07 6.93278031873525e-08  3.835151956772123e-23 9.672196735068342e-07 6.927989503827068e-08  3.831765008692744e-23 9.672173958076393e-07 6.958268650124011e-08  3.823134268333262e-23 9.670860999899879e-07 7.022877866492658e-08  3.851763327231582e-23 9.671399826065241e-07 6.770398490173397e-08  3.844872647732786e-23 9.669672589419473e-07 6.815191846961932e-08  3.843582551562757e-23 9.666514244242841e-07 6.795228548456842e-08  3.823260119216773e-23 9.67300062859279e-07 7.043140589437603e-08  3.820536825621054e-23 9.671037125959562e-07 7.048034811151126e-08  3.853792223775423e-23 9.670839790148847e-07 6.746523455571831e-08  3.823838481073238e-23 9.669262018540541e-07 7.00054506843259e-08  3.852378275260632e-23 9.668509967921981e-07 6.735960949311835e-08  3.831298354381371e-23 9.675249312272394e-07 6.993225440449647e-08  3.827228454833497e-23 9.668080369235606e-07 6.958194406256246e-08  3.848314957974162e-23 9.666363215251921e-07 6.75109253104571e-08  3.855876557599983e-23 9.670435346494902e-07 6.723705008961174e-08  3.855895812834488e-23 9.668573543793815e-07 6.704913546216421e-08  3.845718954166323e-23 9.666406440882543e-07 6.774907510915194e-08  3.819018927463628e-23 9.671885223965661e-07 7.070187802364459e-08  3.840393858508891e-23 9.66582046434885e-07 6.817011943215308e-08  3.841667390037991e-23 9.668187823471801e-07 6.829214582205028e-08  3.835168078156165e-23 9.673946863482041e-07 6.945345579445738e-08  3.833439869990552e-23 9.668049949853972e-07 6.901942758466391e-08  3.836743775552862e-23 9.670973061213436e-07 6.901414936342462e-08  3.833317083353102e-23 9.6745123705859e-07 6.967672929495003e-08  3.850537837935407e-23 9.672590983930806e-07 6.793348295104243e-08  3.838097640111035e-23 9.66977078191895e-07 6.877197615558203e-08  3.820285047731837e-23 9.668149747664341e-07 7.021428841815029e-08  3.838331428892171e-23 9.674856659373121e-07 6.925950607964695e-08  3.824765165955912e-23 9.66815075548659e-07 6.981085602508482e-08  3.835771632846801e-23 9.667253825637828e-07 6.872978863643911e-08  3.822697846726142e-23 9.674503969019602e-07 7.063238494064292e-08  3.839376310420903e-23 9.673528814796281e-07 6.903260706069408e-08  3.819601179172463e-23 9.669304191413517e-07 7.039133019685132e-08  3.821376019694659e-23 9.666854386434889e-07 6.998648627670042e-08  3.837038278196857e-23 9.676018903122847e-07 6.949220711441053e-08  3.837884713353962e-23 9.666509173959273e-07 6.846499409689057e-08  3.835182831277372e-23 9.676902387322564e-07 6.974767933548623e-08  3.817293324540677e-23 9.669384667312641e-07 7.060725085195835e-08  3.839818474268019e-23 9.668918098756168e-07 6.853170887794066e-08  3.855504150302931e-23 9.673252921870794e-07 6.75523510944855e-08  3.853509733135734e-23 9.673458283233864e-07 6.775252835901275e-08  3.841981839919249e-23 9.664716878022997e-07 6.791672814980867e-08  3.826007096790913e-23 9.665915923766999e-07 6.947550966821106e-08  3.829090697536132e-23 9.665855197196831e-07 6.919169094785173e-08  3.823453767808358e-23 9.666200788689649e-07 6.973397958956387e-08  3.844421604978596e-23 9.66440006792875e-07 6.766529264014101e-08  3.847204503616063e-23 9.671672698685726e-07 6.814189449050439e-08  3.816785278456588e-23 9.66734969428055e-07 7.044951427184908e-08  3.853304329209096e-23 9.674903202653027e-07 6.791552144187833e-08  3.859258127140898e-23 9.671449879196127e-07 6.703391865324638e-08  3.86038071682052e-23 9.670175866532766e-07 6.680540349765351e-08  3.836238504346035e-23 9.664162595860557e-07 6.837861361251244e-08  3.840860029587257e-23 9.672422913669012e-07 6.878837540627293e-08  3.856338911215014e-23 9.675297364428832e-07 6.768160677163732e-08  3.843588311980644e-23 9.670409665772654e-07 6.834130878523278e-08  3.833923268945905e-23 9.664820219358116e-07 6.865291382797435e-08  3.831778228088765e-23 9.665490014466125e-07 6.891310144287344e-08  3.814903584378647e-23 9.669512017886719e-07 7.083523456743073e-08  3.815444185441888e-23 9.671458923815153e-07 7.098123214533488e-08  3.819233248516805e-23 9.673835321967239e-07 7.087758349949779e-08  3.829493150785181e-23 9.675846055566055e-07 7.015452701872513e-08  3.826217979264891e-23 9.67517160841688e-07 7.038208352857474e-08  3.858228399677651e-23 9.673003103820363e-07 6.728199072006539e-08  3.862937911340422e-23 9.672707607843613e-07 6.68282460229993e-08  3.864125381110167e-23 9.671868681519287e-07 6.663739562231604e-08  3.953330702206321e-23 9.891795424637936e-07 8.059516891721879e-08  3.954235706843712e-23 9.890355852315782e-07 8.036969611404897e-08  3.950403264943381e-23 9.889468291076021e-07 8.062613566835783e-08  3.94973099082713e-23 9.891076516889951e-07 8.084751131893965e-08  3.946853893286052e-23 9.888712691696455e-07 8.087027470786821e-08  3.951200604316462e-23 9.887860506967354e-07 8.039353931142125e-08  3.955432016789495e-23 9.889041309280247e-07 8.01304877899745e-08  3.956902937136678e-23 9.887936485164883e-07 7.988751665188885e-08  3.952684913003707e-23 9.886627881296539e-07 8.013658210332421e-08  3.94759362160976e-23 9.887168303575267e-07 8.064920709168922e-08  3.945956186996179e-23 9.890430081010247e-07 8.112287183349854e-08  3.943352515702075e-23 9.88776471694617e-07 8.109085328848934e-08  3.954268678023316e-23 9.885607132974852e-07 7.989185440011241e-08  3.94399040341712e-23 9.886405611070307e-07 8.089748688338737e-08  3.948216829374343e-23 9.885417441750713e-07 8.041798734410678e-08  3.959079770704154e-23 9.88710536534797e-07 7.960833293333076e-08  3.966279752076215e-23 9.88602179779903e-07 7.885145950995099e-08  3.969324389136989e-23 9.88617012076978e-07 7.859205528037846e-08  3.965626451454869e-23 9.884068546473727e-07 7.871497846611792e-08  3.944510570002654e-23 9.88496462664786e-07 8.070653600032705e-08  3.963277302582222e-23 9.887672356166279e-07 7.928695195512288e-08  3.95939985956376e-23 9.885286875015358e-07 7.939765285869269e-08  3.940610246418789e-23 9.885506634720076e-07 8.11120467243271e-08  3.955641062893041e-23 9.884501721640697e-07 7.965769982693882e-08  3.966762204717117e-23 9.887950432917326e-07 7.900086755110492e-08  3.962850953194374e-23 9.885678543747835e-07 7.912597285216337e-08  3.950183351618427e-23 9.8843034427285e-07 8.012945886497203e-08  3.95160993136316e-23 9.883320294362482e-07 7.990264914823441e-08  3.968650329297324e-23 9.884270763208198e-07 7.846283343707506e-08  3.941008928453145e-23 9.884163554354434e-07 8.094182860253557e-08  3.962431456735118e-23 9.883773950478923e-07 7.897329840722394e-08  3.971488282188316e-23 9.884230719834517e-07 7.820320902805972e-08  3.967942245529275e-23 9.882375517623335e-07 7.833708739446747e-08  3.952804208618856e-23 9.882281852076592e-07 7.969123398757085e-08  3.95617592674575e-23 9.88312479028062e-07 7.947183043797603e-08  3.959338149888106e-23 9.883504359436013e-07 7.922495961420378e-08  3.944608100249588e-23 9.883548797685029e-07 8.055616836036899e-08  3.965101833878736e-23 9.882279805352573e-07 7.858335770441016e-08  3.947721808733972e-23 9.88199328232216e-07 8.012015889668181e-08  3.946268836069749e-23 9.882866445387155e-07 8.033834734616479e-08  3.97033961091929e-23 9.882103996036781e-07 7.809399975826917e-08  3.973993359343305e-23 9.884021237809149e-07 7.79566235346881e-08  3.937480819176745e-23 9.883329245796995e-07 8.117618157924199e-08  3.94901158908498e-23 9.880927187342763e-07 7.989737631257835e-08  3.941416346171646e-23 9.882716987292608e-07 8.076047497064845e-08  3.961845715975573e-23 9.881826574388997e-07 7.883131963555974e-08  3.945237277666738e-23 9.879580754138897e-07 8.010269274212722e-08  3.953477614883753e-23 9.881243293723525e-07 7.952672310819092e-08  3.950330301602644e-23 9.880003366207952e-07 7.968621513503403e-08  3.964774331540478e-23 9.8806811094983e-07 7.845298690715369e-08  3.97275425334606e-23 9.881845458003283e-07 7.785065430025071e-08  3.958661184191572e-23 9.881478116267631e-07 7.908331094653868e-08  3.937877544124881e-23 9.881838171828358e-07 8.099134037580647e-08  3.955925455856533e-23 9.881370178745037e-07 7.931892969648473e-08  3.966557826672814e-23 9.880203691225144e-07 7.824460211956996e-08  3.942375042586958e-23 9.881500989773127e-07 8.05525235223251e-08  3.94679314694925e-23 9.878697800372506e-07 7.987425711906895e-08  3.961264388966963e-23 9.879711670549926e-07 7.867219053363974e-08  3.943864860065279e-23 9.880565823686975e-07 8.032481608490566e-08  3.934155539547587e-23 9.882868312539529e-07 8.142960281547089e-08  3.934292586662904e-23 9.881052450431472e-07 8.12356724979158e-08  3.952058660148092e-23 9.879355793583202e-07 7.946578117453421e-08  3.938616452956326e-23 9.880410503124971e-07 8.078201851470861e-08  3.939841727696638e-23 9.879215961802921e-07 8.055220144522568e-08  3.968808479545972e-23 9.879784176287742e-07 7.799992983701197e-08  3.957697056454276e-23 9.879362707920605e-07 7.895861101820457e-08  3.930580782493378e-23 9.880556178357165e-07 8.152037488798016e-08  3.962987653108e-23 9.878776521960197e-07 7.842345783979816e-08  3.948373546682379e-23 9.877823561914973e-07 7.964448352033135e-08  3.94294458385861e-23 9.87732373659242e-07 8.008349848707879e-08  3.94143142459661e-23 9.878240034690913e-07 8.03114
[...]
<PointData  Tensors="f_58"> 
<DataArray  type="Float64"  Name="f_58"  NumberOfComponents="9" format="ascii">-1.1180994265676279e-02 9.7063810823798413e-19 -4.9947050331335175e-19 9.7063810823798413e-19 6.2464974712381381e-03 -5.0710553040352990e-04 -4.9947050331335175e-19 -5.0710553040352990e-04 -3.1395746826935579e-03  -1.1180925602655255e-02 9.7175643548901799e-19 -4.9939369182145391e-19 9.7175643548901799e-19 6.2626845292762124e-03 -5.2000845771221446e-04 -4.9939369182145391e-19 -5.2000845771221446e-04 -3.1626679893645188e-03  -1.1180984440540659e-02 9.7079658731462310e-19 -4.9794382271306836e-19 9.7079658731462310e-19 6.2470159065572762e-03 -5.0084830167034737e-04 -4.9794382271306836e-19 -5.0084830167034737e-04 -3.1522063377606622e-03  -1.1181329342878401e-02 9.7145629118496682e-19 -4.9669072301276434e-19 9.7145629118496682e-19 6.2552688558547348e-03 -5.0019021002044751e-04 -4.9669072301276434e-19 -5.0019021002044751e-04 -3.1705225773892651e-03  -1.1181040667013618e-02 9.7044270734534675e-19 -5.1704723331475770e-19 9.7044270734534675e-19 6.2605204570583229e-03 -6.0509802932059650e-04 -5.1704723331475770e-19 -6.0509802932059650e-04 -3.0365612798309480e-03  -1.1181007683643640e-02 9.7119452072933314e-19 -5.1900385019483431e-19 9.7119452072933314e-19 6.2740737428246133e-03 -6.2791829704365290e-04 -5.1900385019483431e-19 -6.2791829704365290e-04 -3.0468983921891381e-03  -1.1181029294773341e-02 9.7122196988454250e-19 -5.1613752132859752e-19 9.7122196988454250e-19 6.2698883083930953e-03 -6.1046604677467294e-04 -5.1613752132859752e-19 -6.1046604677467294e-04 -3.0589923899147289e-03  -1.1180914741355118e-02 9.7021428875210540e-19 -5.1435657547894296e-19 9.7021428875210540e-19 6.2503802314663476e-03 -5.8664536538111491e-04 -5.1435657547894296e-19 -5.8664536538111491e-04 -3.0418492811134755e-03  -1.1181007204234756e-02 9.7043780566110345e-19 -5.1162991423785234e-19 9.7043780566110345e-19 6.2504613130846161e-03 -5.7240615628979417e-04 -5.1162991423785234e-19 -5.7240615628979417e-04 -3.0587295098332555e-03  -1.1180990202966893e-02 9.7059628032199200e-19 -5.0979325696789436e-19 9.7059628032199200e-19 6.2509160633273794e-03 -5.6489445666097480e-04 -5.0979325696789436e-19 -5.6489445666097480e-04 -3.0743583085730839e-03  -1.1181153946213234e-02 9.6944431059325930e-19 -5.0938951080248404e-19 9.6944431059325930e-19 6.2332263190407848e-03 -5.5012497242692515e-04 -5.0938951080248404e-19 -5.5012497242692515e-04 -3.0554823684007448e-03  -1.1180997715476570e-02 9.7158592057376412e-19 -5.1120291175927658e-19 9.7158592057376412e-19 6.2680016605266217e-03 -5.8631036029117877e-04 -5.1120291175927658e-19 -5.8631036029117877e-04 -3.0910688810056363e-03  -1.1180950614984923e-02 9.7116297938837537e-19 -5.1375927490505317e-19 9.7116297938837537e-19 6.2651653540379808e-03 -5.9742826903963801e-04 -5.1375927490505317e-19 -5.9742826903963801e-04 -3.0719418776487869e-03  -1.1180944183641872e-02 9.6961999733823355e-19 -5.1879682644318853e-19 9.6961999733823355e-19 6.2514508339029540e-03 -6.0715476230414228e-04 -5.1879682644318853e-19 -6.0715476230414228e-04 -3.0147149139786548e-03  -1.1181065874143772e-02 9.7242739152438074e-19 -4.9808909646386096e-19 9.7242739152438074e-19 6.2733835346997406e-03 -5.2062303207662619e-04 -4.9808909646386096e-19 -5.2062303207662619e-04 -3.1862913177557388e-03  -1.1180961071645425e-02 9.7128318501370322e-19 -5.0113844872621569e-19 9.7128318501370322e-19 6.2537460619317056e-03 -5.2591622473846587e-04 -5.0113844872621569e-19 -5.2591622473846587e-04 -3.1427105705246808e-03  -1.1181152617260562e-02 9.7002094263957702e-19 -4.9808558329946927e-19 9.7002094263957702e-19 6.2354720110399673e-03 -4.9123044027916073e-04 -4.9808558329946927e-19 -4.9123044027916073e-04 -3.1331821134833243e-03  -1.1180977711150480e-02 9.7059239668003385e-19 -5.2169173130373584e-19 9.7059239668003385e-19 6.2660358208329785e-03 -6.3552214664127640e-04 -5.2169173130373584e-19 -6.3552214664127640e-04 -3.0164345655439664e-03  -1.1180993222256182e-02 9.6955288354060906e-19 -5.2093426997799169e-19 9.6955288354060906e-19 6.2488393298731661e-03 -6.1835627843929584e-04 -5.2093426997799169e-19 -6.1835627843929584e-04 -2.9973087745134475e-03  -1.1181202291355025e-02 9.7249130992768591e-19 -4.9614170942832160e-19 9.7249130992768591e-19 6.2715057699607637e-03 -5.0992638726160718e-04 -4.9614170942832160e-19 -5.0992638726160718e-04 -3.1972226523319029e-03  -1.1181054417550764e-02 9.6914207039314894e-19 -5.1572476112489544e-19 9.6914207039314894e-19 6.2383405263632952e-03 -5.8372019182543426e-04 -5.1572476112489544e-19 -5.8372019182543426e-04 -3.0189069086400560e-03  -1.1180296273914031e-02 9.7146929331262985e-19 -4.9426713962783458e-19 9.7146929331262985e-19 6.2532154358004742e-03 -4.8835166506124798e-04 -4.9426713962783458e-19 -4.8835166506124798e-04 -3.1861511008932958e-03  -1.1180963364963535e-02 9.7221393818910481e-19 -5.1841477738650425e-19 9.7221393818910481e-19 6.2906460915275689e-03 -6.3774227393825452e-04 -5.1841477738650425e-19 -6.3774227393825452e-04 -3.0752776572741847e-03  -1.1181318077715439e-02 9.6920151767623708e-19 -5.1173703259451222e-19 9.6920151767623708e-19 6.2331674555067169e-03 -5.6012461016482790e-04 -5.1173703259451222e-19 -5.6012461016482790e-04 -3.0378356186370704e-03  -1.1180997477785892e-02 9.7046481870243456e-19 -4.9456124132818659e-19 9.7046481870243456e-19 6.2397622987781969e-03 -4.7579527407418522e-04 -4.9456124132818659e-19 -4.7579527407418522e-04 -3.1617845303315273e-03  -1.1181617545563925e-02 9.7282360270370082e-19 -4.9445964729518424e-19 9.7282360270370082e-19 6.2713284808046709e-03 -5.0199859870000919e-04 -4.9445964729518424e-19 -5.0199859870000919e-04 -3.2063355775637974e-03  -1.1180410852262002e-02 9.7177640996375792e-19 -4.9206578117565820e-19 9.7177640996375792e-19 6.2586464181124176e-03 -4.7764784996316646e-04 -4.9206578117565820e-19 -4.7764784996316646e-04 -3.2045272363823477e-03  -1.1180786247600948e-02 9.7021826970544323e-19 -4.9658581770483050e-19 9.7021826970544323e-19 6.2358190915154169e-03 -4.8439740313106913e-04 -4.9658581770483050e-19 -4.8439740313106913e-04 -3.1425930270330329e-03  -1.1181019121163418e-02 9.6991021664344123e-19 -5.2341866793864730e-19 9.6991021664344123e-19 6.2581004594210879e-03 -6.3530541701666324e-04 -5.2341866793864730e-19 -6.3530541701666324e-04 -2.9893279031999813e-03  -1.1180974689606146e-02 9.6963747296684921e-19 -4.9950304132283185e-19 9.6963747296684921e-19 6.2291190273463760e-03 -4.9416769576644869e-04 -4.9950304132283185e-19 -4.9416769576644869e-04 -3.1137211072515530e-03  -1.1181068861659114e-02 9.7061963974707950e-19 -5.0149223369712206e-19 9.7061963974707950e-19 6.2437280455926135e-03 -5.1765048006927061e-04 -5.0149223369712206e-19 -5.1765048006927061e-04 -3.1219567902867058e-03  -1.1180984192750881e-02 9.7230880125528011e-19 -5.1366238337951731e-19 9.7230880125528011e-19 6.2806147110313747e-03 -6.0916794414905503e-04 -5.1366238337951731e-19 -6.0916794414905503e-04 -3.0920418912148162e-03  -1.1181043678502528e-02 9.6991773451949946e-19 -5.0712028055640796e-19 9.6991773451949946e-19 6.2381273932061642e-03 -5.4113278344539942e-04 -5.0712028055640796e-19 -5.4113278344539942e-04 -3.0745288998689189e-03  -1.1181057469782488e-02 9.7118195495381305e-19 -5.0819348701173445e-19 9.7118195495381305e-19 6.2595448880977062e-03 -5.6466971444882796e-04 -5.0819348701173445e-19 -5.6466971444882796e-04 -3.1009404998512944e-03  -1.1181025224067062e-02 9.7222078552715109e-19 -5.1579132680817805e-19 9.7222078552715109e-19 6.2844225168324644e-03 -6.2117006847809363e-04 -5.1579132680817805e-19 -6.2117006847809363e-04 -3.0831699233777690e-03  -1.1180960441330233e-02 9.7293842054322766e-19 -5.0016556950169116e-19 9.7293842054322766e-19 6.2800406860400049e-03 -5.3850368371563529e-04 -5.0016556950169116e-19 -5.3850368371563529e-04 -3.1818866135532131e-03  -1.1181004100281063e-02 9.7073861726136907e-19 -5.0609986276885805e-19 9.7073861726136907e-19 6.2521245992290791e-03 -5.4718267693140232e-04 -5.0609986276885805e-19 -5.4718267693140232e-04 -3.1041412402498620e-03  -1.1181119968910523e-02 9.6853392544716235e-19 -5.1715259231235484e-19 9.6853392544716235e-19 6.2311635309769157e-03 -5.8186505109994186e-04 -5.1715259231235484e-19 -5.8186505109994186e-04 -2.9933845799130707e-03  -1.1181006277787193e-02 9.7295488933836010e-19 -5.1202814341630054e-19 9.7295488933836010e-19 6.2901070084233190e-03 -6.0813303799527214e-04 -5.1202814341630054e-19 -6.0813303799527214e-04 -3.1173095081252120e-03  -1.1180966877300190e-02 9.6901646220892985e-19 -5.1373531187359890e-19 9.6901646220892985e-19 6.2311004802236497e-03 -5.6853801537220736e-04 -5.1373531187359890e-19 -5.6853801537220736e-04 -3.0192289166054921e-03  -1.1181062168166044e-02 9.6973942456621065e-19 -5.0437157873428491e-19 9.6973942456621065e-19 6.2330944605521448e-03 -5.2364308520818931e-04 -5.0437157873428491e-19 -5.2364308520818931e-04 -3.0872819066331144e-03  -1.1180930304977495e-02 9.7112244438318070e-19 -5.2416515578343508e-19 9.7112244438318070e-19 6.2806954752699738e-03 -6.5697958363971200e-04 -5.2416515578343508e-19 -6.5697958363971200e-04 -3.0198085368179418e-03  -1.1180977685911449e-02 9.7231949556107384e-19 -5.0985275542989354e-19 9.7231949556107384e-19 6.2802226037559847e-03 -5.8846319155517917e-04 -5.0985275542989354e-19 -5.8846319155517917e-04 -3.1186627696428810e-03  -1.1181085177843445e-02 9.6920428106314232e-19 -5.1924799302260499e-19 9.6920428106314232e-19 6.2425224960482696e-03 -6.0020835770566801e-04 -5.1924799302260499e-19 -6.0020835770566801e-04 -2.9915371394210097e-03  -1.1180863263667906e-02 9.6816078102339808e-19 -5.1476446915004984e-19 9.6816078102339808e-19 6.2207546473811316e-03 -5.6358231153560707e-04 -5.1476446915004984e-19 -5.6358231153560707e-04 -2.9956393813882994e-03  -1.1181025618422293e-02 9.7333631763496001e-19 -5.1475450396871695e-19 9.7333631763496001e-19 6.2995237122292543e-03 -6.2842343600944342e-04 -5.1475450396871695e-19 -6.2842343600944342e-04 -3.1113607424214517e-03  -1.1181045912297884e-02 9.6958177873496613e-19 -5.0205251173283618e-19 9.6958177873496613e-19 6.2310462588324152e-03 -5.0900244882191533e-04 -5.0205251173283618e-19 -5.0900244882191533e-04 -3.1005364123649418e-03  -1.1181003404895485e-02 9.7333609547871790e-19 -5.1728002713832321e-19 9.7333609547871790e-19 6.3048095310153105e-03 -6.4338078020388136e-04 -5.1728002713832321e-19 -6.4338078020388136e-04 -3.1010250437299080e-03  -1.1180888289937928e-02 9.6910507624055378e-19 -5.2130136278500491e-19 9.6910507624055378e-19 6.2412074792111511e-03 -6.0997481472772756e-04 -5.2130136278500491e-19 -6.0997481472772756e-04 -2.9741581548384760e-03  -1.1181073697801873e-02 9.7053236484470655e-19 -5.0362766772284999e-19 9.7053236484470655e-19 6.2459328205998069e-03 -5.3085330223712234e-04 -5.0362766772284999e-19 -5.3085330223712234e-04 -3.1136805272547799e-03  -1.1181006439849091e-02 9.7349684848410337e-19 -4.9754600952056181e-19 9.7349684848410337e-19 6.2885557592408442e-03 -5.3011519995755285e-04 -4.9754600952056181e-19 -5.3011519995755285e-04 -3.2108467702289755e-03  -1.1180950579774930e-02 9.7333358348295950e-19 -4.9927456040875151e-19 9.7333358348295950e-19 6.2878786313810770e-03 -5.3870674489437623e-04 -4.9927456040875151e-19 -5.3870674489437623e-04 -3.1990433283467560e-03  -1.1180883024060473e-02 9.6925914128845894e-19 -4.9679004218469513e-19 9.6925914128845894e-19 6.2220113692123234e-03 -4.7477339058518643e-04 -4.9679004218469513e-19 -4.7477339058518643e-04 -3.1233299729160834e-03  -1.1181484359080535e-02 9.6841162869595807e-19 -5.0972252116767922e-19 9.6841162869595807e-19 6.2178314804530359e-03 -5.3705513024017611e-04 -5.0972252116767922e-19 -5.3705513024017611e-04 -3.0272128329787359e-03  -1.1181125284196411e-02 9.6870264775895833e-19 -5.0733803963824194e-19 9.6870264775895833e-19 6.2197962466043026e-03 -5.2655138329417905e-04 -5.0733803963824194e-19 -5.2655138329417905e-04 -3.0451644226026729e-03  -1.1180741680483972e-02 9.6814892848861690e-19 -5.1203639834324247e-19 9.6814892848861690e-19 6.2176657835902949e-03 -5.4798531913760400e-04 -5.1203639834324247e-19 -5.4798531913760400e-04 -3.0104714373968794e-03  -1.1181187612328815e-02 9.6934798277070177e-19 -4.9491934678232143e-19 9.6934798277070177e-19 6.2235988131237084e-03 -4.6454450316519186e-04 -4.9491934678232143e-19 -4.6454450316519186e-04 -3.1371678451271212e-03  -1.1181041772202230e-02 9.7237996157363088e-19 -5.0173907899675592e-19 9.7237996157363088e-19 6.2712271841376711e-03 -5.4010707747354642e-04 -5.0173907899675592e-19 -5.4010707747354642e-04 -3.1581570362392963e-03  -1.1181102257844052e-02 9.6820252721422607e-19 -5.1865088371279285e-19 9.6820252721422607e-19 6.2251029795638247e-03 -5.8389313087437648e-04 -5.1865088371279285e-19 -5.8389313087437648e-04 -2.9703238873806641e-03  -1.1180968181668801e-02 9.7390170957728193e-19 -5.0112925669501401e-19 9.7390170957728193e-19 6.2974589147279858e-03 -5.5688778565847843e-04 -5.0112925669501401e-19 -5.5688778565847843e-04 -3.2013752091265561e-03  -1.1181015641552786e-02 9.7311033600439486e-19 -4.9282014557017421e-19 9.7311033600439486e-19 6.2793701874339410e-03 -4.9830981322024348e-04 -4.9282014557017421e-19 -4.9830981322024348e-04 -3.2301652147011316e-03  -1.1181224374319860e-02 9.7271625379093521e-19 -4.9093260553847809e-19 9.7271625379093521e-19 6.2721903783853677e-03 -4.8100978596104724e-04 -4.9093260553847809e-19 -4.8100978596104724e-04 -3.2299048690379410e-03  -1.1181029113645055e-02 9.6873372235821603e-19 -5.0011388968704229e-19 9.6873372235821603e-19 6.2155803024181409e-03 -4.8574227055863723e-04 -5.0011388968704229e-19 -4.8574227055863723e-04 -3.0887168377398337e-03  -1.1181028501557354e-02 9.7194367404293367e-19 -5.0734079241464291e-19 9.7194367404293367e-19 6.2719724357002968e-03 -5.6911290986285063e-04 -5.0734079241464291e-19 -5.6911290986285063e-04 -3.1238353708897002e-03  -1.1180957960314097e-02 9.7435733375093185e-19 -4.9942410815246230e-19 9.7435733375093185e-19 6.3034019247752001e-03 -5.5143174396578428e-04 -4.9942410815246230e-19 -5.5143174396578428e-04 -3.2188951230099068e-03  -1.1181011767757276e-02 9.7150451108539710e-19 -5.0282341945299522e-19 9.7150451108539710e-19 6.2598835398280208e-03 -5.3730991459065584e-04 -5.0282341945299522e-19 -5.3730991459065584e-04 -3.1373960301427392e-03  -1.1181116310313946e-02 9.6882111435003312e-19 -5.0261387613398263e-19 9.6882111435003312e-19 6.2188020058096642e-03 -5.0076219099951436e-04 -5.0261387613398263e-19 -5.0076219099951436e-04 -3.0755427090639947e-03  -1.1180925602814350e-02 9.6883596064204247e-19 -5.0496314688071909e-19 9.6883596064204247e-19 6.2204023328729773e-03 -5.1549887212162825e-04 -5.0496314688071909e-19 -5.1549887212162825e-04 -3.0636468369114045e-03  -1.1180989107410142e-02 9.6865040838189090e-19 -5.2320535138053288e-19 9.6865040838189090e-19 6.2394276768494720e-03 -6.1532479836641290e-04 -5.2320535138053288e-19 -6.1532479836641290e-04 -2.9571713133739650e-03  -1.1180951887315467e-02 9.6939707367670804e-19 -5.2567448421669418e-19 9.6939707367670804e-19 6.2555833883677506e-03 -6.4119193828955840e-04 -5.2567448421669418e-19 -6.4119193828955840e-04 -2.9670561954932679e-03  -1.1180951769430203e-02 9.7056822821255808e-19 -5.2620465803828607e-19 9.7056822821255808e-19 6.2749313161237765e-03 -6.5981866721589696e-04 -5.2620465803828607e-19 -6.5981866721589696e-04 -2.9930089383093522e-03  -1.1181032056915698e-02 9.7233436648349753e-19 -5.2025994365255620e-19 9.7233436648349753e-19 6.2941999976865318e-03 -6.4822617562952894e-04 -5.2025994365255620e-19 -6.4822617562952894e-04 -3.0645277470010262e-03  -1.1180939752536536e-02 9.7202185275853826e-19 -5.2239043055848381e-19 9.7202185275853826e-19 6.2893197681236045e-03 -6.5503571383076587e-04 -5.2239043055848381e-19 -6.5503571383076587e-04 -3.0403322917200337e-03  -1.1180916850981657e-02 9.7385995303713542e-19 -4.9537549121256204e-19 9.7385995303713542e-19 6.2898520269766703e-03 -5.2052262586468456e-04 -4.9537549121256204e-19 -5.2052262586468456e-04 -3.2253381836996812e-03  -1.1181394246367552e-02 9.7388128745080919e-19 -4.9171519190411862e-19 9.7388128745080919e-19 6.2920404895155718e-03 -4.9930698174856811e-04 -4.9171519190411862e-19 -4.9930698174856811e-04 -3.2516039125518167e-03  -1.1180716088409053e-02 9.7377623531361649e-19 -4.9026622188466551e-19 9.7377623531361649e-19 6.2859828035394544e-03 -4.8864342994236608e-04 -4.9026622188466551e-19 -4.8864342994236608e-04 -3.2508575814686681e-03  -1.1643474003431419e-31 -2.3021399589395553e-19 -4.8578634001403874e-19 -2.3021399589395553e-19 -1.8757397996438930e-03 -1.5318034207135508e-03 -4.8578634001403874e-19 -1.5318034207135508e-03 3.4161150131980958e-03  2.8473829671843375e-31 -2.2900007910338794e-19 -4.8655969624327996e-19 -2.2900007910338794e-19 -1.9267178908426226e-03 -1.5414161590796257e-03 -4.8655969624327996e-19 -1.5414161590796257e-03 3.4836671557906206e-03  4.9121292799589119e-31 -2.3097521393947110e-19 -4.9051710110796585e-19 -2.3097521393947110e-19 -1.9106722510337354e-03 -1.5538058302288014e-03 -4.9051710110796585e-19 -1.5538058302288014e-03 3.4785515759328100e-03  3.7615152275602650e-32 -2.3218975816738342e-19 -4.8932439700094075e-19 -2.3218975816738342e-19 -1.8580288183833878e-03 -1.5422442770133308e-03 -4.8932439700094075e-19 -1.5422442770133308e-03 3.4056661188965687e-03  -1.0042454197924892e-30 -2.3326615040600531e-19 -4.9393020682256164e-19 -2.3326615040600531e-19 -1.8951021018736231e-03 -1.5629161852274728e-03 -4.9393020682256164e-19 -1.5629161852274728e-03 3.4649759208050844e-03  -9.8113341235220223e-31 -2.2988562870589122e-19 -4.9135892061569223e-19 -2.2988562870589122e-19 -1.9651325773838604e-03 -1.5638093062899238e-03 -4.9135892061569223e-19 -1.5638093062899238e-03 3.5477980448532110e-03  2.1780426017512395e-31 -2.2783406901967580e-19 -4.8679585922578035e-19 -2.2783406901967580e-19 -1.9765183484047027e-03 -1.5469173359775623e-03 -4.8679585922578035e-19 -1.5469173359775623e-03 3.5477245639505711e-03  -5.4186263594756068e-31 -2.2625483812924437e-19 -4.8707305660539245e-19 -2.2625483812924437e-19 -2.0195846747478770e-03 -1.5546766531237270e-03 -4.8707305660539245e-19 -1.5546766531237270e-03 3.6087146946628965e-03  -3.4821067104476315e-30 -2.2861192940113927e-19 -4.9147987219284391e-19 -2.2861192940113927e-19 -2.0161058866814312e-03 -1.5688815819467981e-03 -4.9147987219284391e-19 -1.5688815819467981e-03 3.6137505996051769e-03  2.7781731810091052e-31 -2.3216972957988498e-19 -4.9490413904294599e-19 -2.3216972957988498e-19 -1.9528094889120098e-03 -1.5724096317329976e-03 -4.9490413904294599e-19 -1.5724096317329976e-03 3.5409925796664669e-03  3.1958032531844483e-31 -2.3458155531032844e-19 -4.9309370073143502e-19 -2.3458155531032844e-19 -1.8369664025500660e-03 -1.5522062440482887e-03 -4.9309370073143502e-19 -1.5522062440482887e-03 3.3894947216103525e-03  -1.6383518209820222e-30 -2.3516159283075386e-19 -4.9787439626005789e-19 -2.3516159283075386e-19 -1.8888702430486918e-03 -1.5748451453676106e-03 -4.9787439626005789e-19 -1.5748451453676106e-03 3.4717930868317726e-03  6.5592239367943256e-30 -2.2724625027057099e-19 -4.9108569082397451e-19 -2.2724625027057099e-19 -2.0633139504502192e-03 -1.5734911612477536e-03 -4.9108569082397451e-19 -1.5734911612477536e-03 3.6692404526023812e-03  6.6979534893940649e-30 -2.3425298471123096e-19 -4.9852775459256457e-19 -2.3425298471123096e-19 -1.9354928244644340e-03 -1.5826760122814405e-03 -4.9852775459256457e-19 -1.5826760122814405e-03 3.5308918205449688e-03  4.2036665796173241e-30 -2.3090903278567479e-19 -4.9621081488607190e-19 -2.3090903278567479e-19 -2.0061770267198902e-03 -1.5854586870770490e-03 -4.9621081488607190e-19 -1.5854586870770490e-03 3.6145116805982149e-03  4.6006840255519724e-30 -2.2505135544739641e-19 -4.8569177356000658e-19 -2.2505135544739641e-19 -2.0700652656014912e-03 -1.5520203140593533e-03 -4.8569177356000658e-19 -1.5520203140593533e-03 3.6613049970417046e-03  7.5015434408283796e-30 -2.2024112964060773e-19 -4.8101306582725367e-19 -2.2024112964060773e-19 -2.1678534010436822e-03 -1.5456760803041853e-03 -4.8101306582725367e-19 -1.545676080304