<?xml version="1.0"?>
<VTKFile type="UnstructuredGrid"  version="0.1"  >
<UnstructuredGrid>
<Piece  NumberOfPoints="10032" NumberOfCells="19650">
<Points>
<DataArray  type="Float64"  NumberOfComponents="3"  format="ascii">3.901518079129386e-23 9.66732228998744e-07 6.281472165181667e-08  3.898834988629692e-23 9.664900834982315e-07 6.281424745879658e-08  3.89856056490728e-23 9.666501802062126e-07 6.299906205825768e-08  3.895422733336908e-23 9.664831813820316e-07 6.311469397589823e-08  3.896998584585018e-23 9.667226083363249e-07 6.321218086831587e-08  3.901780394277841e-23 9.664465600753998e-07 6.250542548037567e-08  3.906416780321384e-23 9.666390002717108e-07 6.228025714752587e-08  3.904101509164988e-23 9.664099139827283e-07 6.225971194488742e-08  3.92387934833227e-23 9.66604319375141e-07 6.067268795522091e-08  3.92287328780236e-23 9.667430161045423e-07 6.090200256117438e-08  3.925795880545247e-23 9.66820992819999e-07 6.071673552487465e-08  3.927915522128981e-23 9.668131181868059e-07 6.051794055074835e-08  3.875512840970735e-23 9.669435874173484e-07 6.536842368804066e-08  3.878224835139818e-23 9.669007776840083e-07 6.508133923611435e-08  3.874540683655308e-23 9.667184457994995e-07 6.523084621666176e-08  3.914062489003087e-23 9.664357487955205e-07 6.138834145593745e-08  3.913222935909718e-23 9.662710078600518e-07 6.129922074043785e-08  3.910354438129699e-23 9.662820479933335e-07 6.156863218438371e-08  3.936706165080823e-23 9.663336355183809e-07 5.92466671558781e-08  3.934055607125296e-23 9.66365068393723e-07 5.951684106763692e-08  3.937913788930944e-23 9.665374556522188e-07 5.934171420328784e-08  3.872229371466776e-23 9.667148375311332e-07 6.543542244251575e-08  3.913245278778743e-23 9.665308246726845e-07 6.155702508633829e-08  3.907649167930312e-23 9.664774226228155e-07 6.200767589110366e-08  3.916047518518924e-23 9.66261171098737e-07 6.103496819539713e-08  3.916647287857238e-23 9.664603235296323e-07 6.11800982069217e-08  3.947418929169226e-23 9.667524125589066e-07 5.870052418927108e-08  3.948150582280774e-23 9.666600402208747e-07 5.854225039762848e-08  3.944271388158096e-23 9.665215520448576e-07 5.875316896571925e-08  3.919827870200261e-23 9.665114705936205e-07 6.094476388181264e-08  3.909987176563304e-23 9.664291804743568e-07 6.174884464647836e-08  3.94121866323674e-23 9.665721220546204e-07 5.907870399184761e-08  3.906591999316795e-23 9.662288661530106e-07 6.185434070477686e-08  3.877837904059181e-23 9.664793546969011e-07 6.469476790241862e-08  3.873580833988881e-23 9.66334515012601e-07 6.493337100176443e-08  3.876369401549407e-23 9.665569753292526e-07 6.490465948188638e-08  3.971050891153242e-23 9.665308642915775e-07 5.635039801823692e-08  3.966845908176749e-23 9.663928554240628e-07 5.659114034604287e-08  3.96966736120832e-23 9.666204766430301e-07 5.656462766857771e-08  3.926966996837183e-23 9.66635624993849e-07 6.042588292080534e-08  3.962564626994605e-23 9.663382254682564e-07 5.692213391696791e-08  3.966356257302747e-23 9.665625810804551e-07 5.680496983230915e-08  3.932648701352314e-23 9.666021956357616e-07 5.988069111597438e-08  3.932122865038443e-23 9.664218380245182e-07 5.974769662927516e-08  3.928735172441469e-23 9.663563972974152e-07 5.998739212451976e-08  3.946902747681434e-23 9.664704129168287e-07 5.84650180423146e-08  3.950938633147792e-23 9.66688344261553e-07 5.831942914139094e-08  3.936574463928754e-23 9.666523598240587e-07 5.957725404674358e-08  3.903272061678899e-23 9.666553915200398e-07 6.257989946998437e-08  3.876638111919721e-23 9.667073715258211e-07 6.503085239998247e-08  3.873748190205519e-23 9.665315152976352e-07 6.511529717890083e-08  3.88295179594522e-23 9.662756981569562e-07 6.403049293062615e-08  3.882963485824601e-23 9.664280703967085e-07 6.418181223964998e-08  3.886284604863409e-23 9.665268123995887e-07 6.398141443321764e-08  3.910762153507523e-23 9.667432831772192e-07 6.199314363179658e-08  3.91661643510128e-23 9.66623740840102e-07 6.134629448659614e-08  3.903395406084176e-23 9.662148922450466e-07 6.212829031863839e-08  3.889173574196124e-23 9.665053456115569e-07 6.369973242097986e-08  3.892394520540516e-23 9.666999643096529e-07 6.36042340639481e-08  3.892791460084832e-23 9.665435254408525e-07 6.341204205947028e-08  3.890159998550311e-23 9.667348853777545e-07 6.384042298009849e-08  3.888848248180718e-23 9.663071093967399e-07 6.353079896859784e-08  3.879886554682457e-23 9.663987449570562e-07 6.442963211890184e-08  3.884267227520168e-23 9.666272203345298e-07 6.426353156518439e-08  3.920378819005498e-23 9.663572217029504e-07 6.074088993446333e-08  3.924061758077818e-23 9.664275009594088e-07 6.047943953024707e-08  3.880295806516201e-23 9.662472049813807e-07 6.424123001510734e-08  3.962524594094956e-23 9.66869134495342e-07 5.745664878709239e-08  3.962752105998887e-23 9.66680989673551e-07 5.724801151478609e-08  3.960090975978855e-23 9.666842021422607e-07 5.749091726682779e-08  3.863087747666802e-23 9.669832439757224e-07 6.65272331578874e-08  3.862997081478696e-23 9.66792603740578e-07 6.634475940696242e-08  3.858595937382213e-23 9.66749462763624e-07 6.669803824826686e-08  3.919682162214074e-23 9.666816832216195e-07 6.11281007184577e-08  3.945036984653331e-23 9.667227925228219e-07 5.888545064187032e-08  3.885735372588969e-23 9.662970127027207e-07 6.380108518167969e-08  3.929209155147699e-23 9.661679197100395e-07 5.975622197036092e-08  3.907063530272485e-23 9.668542733970052e-07 6.243727621604466e-08  3.928653399061136e-23 9.665505893231405e-07 6.018894964154904e-08  3.941027904970992e-23 9.667725194091306e-07 5.929628332344865e-08  3.981346784913608e-23 9.665909555903977e-07 5.548311765100456e-08  3.985830087258865e-23 9.667412652516985e-07 5.522960733687556e-08  3.981951964592905e-23 9.664449808203386e-07 5.528263314138195e-08  3.879745710331297e-23 9.66773049849891e-07 6.481662314308459e-08  3.904641354314281e-23 9.668477560719951e-07 6.264892910589033e-08  3.922587934767629e-23 9.669021407395008e-07 6.108682951255065e-08  3.92581712964138e-23 9.669650816398187e-07 6.085891039626594e-08  3.928752082616382e-23 9.669979618946889e-07 6.062743358864469e-08  3.866487766878145e-23 9.666630927441427e-07 6.590083542124267e-08  3.869495749256689e-23 9.668133283430412e-07 6.578013605375812e-08  3.868709894984608e-23 9.666115733173999e-07 6.564916448825505e-08  3.909624668692981e-23 9.660782384367327e-07 6.143055441504827e-08  3.912339070267397e-23 9.66104494315115e-07 6.12123187350492e-08  3.910223091242643e-23 9.668972316179277e-07 6.219564648480996e-08  3.870551014890758e-23 9.66501501713674e-07 6.537325954606356e-08  3.948278710737602e-23 9.669257391430089e-07 5.879640853435417e-08  3.950974500018909e-23 9.668886690876813e-07 5.851652336697134e-08  3.871875334774141e-23 9.668357501885647e-07 6.558822389028771e-08  3.930492689876756e-23 9.668034759547768e-07 6.02761676845483e-08  3.997192400078078e-23 9.665911933307832e-07 5.405610926038679e-08  3.994385396030383e-23 9.66574782674368e-07 5.429253105163609e-08  3.998637589247027e-23 9.667815659250844e-07 5.411631078663287e-08  3.912189067254917e-23 9.666388365611337e-07 6.17601720512901e-08  3.957111068873735e-23 9.665599299406498e-07 5.763505123578125e-08  3.958704774326713e-23 9.664966586518331e-07 5.742823172128107e-08  3.968822998851125e-23 9.663183399827387e-07 5.633854440823093e-08  3.978180576963444e-23 9.663315925433807e-07 5.550894126287829e-08  3.881957625183489e-23 9.666717904363219e-07 6.451613215143329e-08  3.920791796816976e-23 9.661914700443972e-07 6.053794054155229e-08  3.972694626851096e-23 9.664534435256335e-07 5.612492270276587e-08  3.906459374940049e-23 9.660442296052332e-07 6.168164989887324e-08  3.965046306240209e-23 9.65890011789029e-07 5.62503904432255e-08  3.969634637012826e-23 9.660580464665464e-07 5.600514502558667e-08  3.966332419931826e-23 9.658248322580738e-07 5.606936808942381e-08  3.891663305520795e-23 9.662917982114517e-07 6.326192995955378e-08  3.988430758325711e-23 9.664647984187129e-07 5.47188928789388e-08  3.991899430973904e-23 9.6669481309856e-07 5.463647730186847e-08  3.99008439690801e-23 9.664147053455647e-07 5.451985328372964e-08  3.933361023123939e-23 9.668129963332746e-07 6.002733157218228e-08  3.900669118847487e-23 9.668645925475878e-07 6.302355274484473e-08  3.962992934119612e-23 9.661875590300828e-07 5.673288900262276e-08  3.924733162641006e-23 9.662819574600376e-07 6.027342128406415e-08  3.969245488039203e-23 9.667669435092335e-07 5.674909349172577e-08  3.950098524277548e-23 9.664864031936661e-07 5.819315835340369e-08  3.916893577756611e-23 9.661026095063213e-07 6.080020036162992e-08  3.944875203138782e-23 9.66870838179281e-07 5.904806828170214e-08  3.973461437664064e-23 9.667548228772653e-07 5.635723387656681e-08  3.897717582852082e-23 9.662556725469098e-07 6.26804834723482e-08  3.895755212064213e-23 9.66828835146836e-07 6.343040071925471e-08  3.973599692080847e-23 9.663347969980335e-07 5.59247551465369e-08  3.970338370118747e-23 9.66248361888629e-07 5.613207380459733e-08  3.894831458004951e-23 9.662813676976877e-07 6.296613763884784e-08  3.958387118355909e-23 9.667686798141509e-07 5.772886478983378e-08  3.953812648345831e-23 9.664932364898851e-07 5.786545309422417e-08  3.963725167582598e-23 9.665450052998474e-07 5.702438154536632e-08  3.988096892745312e-23 9.665722093545793e-07 5.485637575287468e-08  3.913948038630977e-23 9.669853846129062e-07 6.194828604638696e-08  3.966948768588062e-23 9.660940607361834e-07 5.628308081596234e-08  3.879385116464716e-23 9.66064162634585e-07 6.414021533584194e-08  3.88217185562763e-23 9.660791732008826e-07 6.390421875302597e-08  3.966372697470812e-23 9.667421408173389e-07 5.698304877049756e-08  3.965027575971678e-23 9.661540247187416e-07 5.651609044554563e-08  3.985292112713542e-23 9.665322290963814e-07 5.506902762079554e-08  3.982181992298862e-23 9.662907722663317e-07 5.510770553355842e-08  3.93988081602567e-23 9.66312204783533e-07 5.893928928478527e-08  3.942619320776914e-23 9.662652802574851e-07 5.864570217919234e-08  3.900386017942265e-23 9.662243804815322e-07 6
[...]
<PointData  Tensors="f_45"> 
<DataArray  type="Float64"  Name="f_45"  NumberOfComponents="9" format="ascii">0.0000000000000000e+00 9.7423804612885629e-19 -4.6322687713248462e-19 9.7423804612885629e-19 1.7479583235626241e-02 -3.2918920253871699e-04 -4.6322687713248462e-19 -3.2918920253871699e-04 7.7571043303287547e-03  0.0000000000000000e+00 9.7326266021671969e-19 -4.6284882052614646e-19 9.7326266021671969e-19 1.7465598892340235e-02 -3.1600421409841450e-04 -4.6284882052614646e-19 -3.1600421409841450e-04 7.7730771976043320e-03  0.0000000000000000e+00 9.7394717682941139e-19 -4.6437730986026015e-19 9.7394717682941139e-19 1.7472694321236670e-02 -3.3255108719188310e-04 -4.6437730986026015e-19 -3.3255108719188310e-04 7.7727539935535002e-03  0.0000000000000000e+00 9.7308563618207149e-19 -4.6466209449320306e-19 9.7308563618207149e-19 1.7459849829118555e-02 -3.2633567436240459e-04 -4.6466209449320306e-19 -3.2633567436240459e-04 7.7876393986439892e-03  0.0000000000000000e+00 9.7398715067365930e-19 -4.6576909721788875e-19 9.7398715067365930e-19 1.7474603323970050e-02 -3.4166498229913530e-04 -4.6576909721788875e-19 -3.4166498229913530e-04 7.7784095174668506e-03  0.0000000000000000e+00 9.7320873756735368e-19 -4.6092796937996067e-19 9.7320873756735368e-19 1.7465126249501771e-02 -3.0400320147270273e-04 -4.6092796937996067e-19 -3.0400320147270273e-04 7.7619775035752585e-03  0.0000000000000000e+00 9.7414978939438670e-19 -4.6011617002920582e-19 9.7414978939438670e-19 1.7480260988049584e-02 -3.0820672249325950e-04 -4.6011617002920582e-19 -3.0820672249325950e-04 7.7407641286048740e-03  0.0000000000000000e+00 9.7308416707366709e-19 -4.5966989638017184e-19 9.7308416707366709e-19 1.7464582675651926e-02 -2.9579366081304749e-04 -4.5966989638017184e-19 -2.9579366081304749e-04 7.7540326678579739e-03  0.0000000000000000e+00 9.7469200567326842e-19 -4.5111780589959197e-19 9.7469200567326842e-19 1.7496364233762905e-02 -2.5483424293268092e-04 -4.5111780589959197e-19 -2.5483424293268092e-04 7.6790734247761437e-03  0.0000000000000000e+00 9.7513533320107247e-19 -4.5245881966228076e-19 9.7513533320107247e-19 1.7502526794654541e-02 -2.6790324676851849e-04 -4.5245881966228076e-19 -2.6790324676851849e-04 7.6789166912962070e-03  0.0000000000000000e+00 9.7550445713519665e-19 -4.5134640685838238e-19 9.7550445713519665e-19 1.7508920346745387e-02 -2.6419469851188851e-04 -4.5134640685838238e-19 -2.6419469851188851e-04 7.6665503338092383e-03  0.0000000000000000e+00 9.7552594078443883e-19 -4.5039441853346998e-19 9.7552594078443883e-19 1.7509463794132520e-02 -2.5903638220472065e-04 -4.5039441853346998e-19 -2.5903638220472065e-04 7.6595610369951462e-03  0.0000000000000000e+00 9.7378377388859544e-19 -4.8029242223528340e-19 9.7378377388859544e-19 1.7466024237320826e-02 -4.2765065160953886e-04 -4.8029242223528340e-19 -4.2765065160953886e-04 7.8729825195862045e-03  0.0000000000000000e+00 9.7380579594929600e-19 -4.7834066531842269e-19 9.7380579594929600e-19 1.7466437449349288e-02 -4.1607242668487067e-04 -4.7834066531842269e-19 -4.1607242668487067e-04 7.8609627446911499e-03  0.0000000000000000e+00 9.7269829781483193e-19 -4.7853307321258495e-19 9.7269829781483193e-19 1.7451534466502095e-02 -4.0724461188954898e-04 -4.7853307321258495e-19 -4.0724461188954898e-04 7.8770365568711174e-03  0.0000000000000000e+00 9.7362574258937124e-19 -4.5483782819849544e-19 9.7362574258937124e-19 1.7476733358578599e-02 -2.6991711063522553e-04 -4.5483782819849544e-19 -2.6991711063522553e-04 7.7163444406002724e-03  0.0000000000000000e+00 9.7308967584232830e-19 -4.5401868708262390e-19 9.7308967584232830e-19 1.7469078795656366e-02 -2.5911738710719250e-04 -4.5401868708262390e-19 -2.5911738710719250e-04 7.7211851960718473e-03  0.0000000000000000e+00 9.7312712500155740e-19 -4.5553395795906386e-19 9.7312712500155740e-19 1.7467618777828008e-02 -2.6821433760970659e-04 -4.5553395795906386e-19 -2.6821433760970659e-04 7.7324226303942586e-03  0.0000000000000000e+00 9.7399252844969961e-19 -4.4377904074889119e-19 9.7399252844969961e-19 1.7493922527500361e-02 -2.0010899012143344e-04 -4.4377904074889119e-19 -2.0010899012143344e-04 7.6461615352127225e-03  0.0000000000000000e+00 9.7413464107563241e-19 -4.4521128547764067e-19 9.7413464107563241e-19 1.7494358150216060e-02 -2.1066625591218473e-04 -4.4521128547764067e-19 -2.1066625591218473e-04 7.6529724816995276e-03  0.0000000000000000e+00 9.7470498414104809e-19 -4.4434256857335338e-19 9.7470498414104809e-19 1.7503783216636065e-02 -2.1125842605903460e-04 -4.4434256857335338e-19 -2.1125842605903460e-04 7.6369880497490954e-03  0.0000000000000000e+00 9.7254181173289375e-19 -4.8026801115752816e-19 9.7254181173289375e-19 1.7447791355223702e-02 -4.1380372663878508e-04 -4.8026801115752816e-19 -4.1380372663878508e-04 7.8960962995408904e-03  0.0000000000000000e+00 9.7391838161008042e-19 -4.5564534649452381e-19 9.7391838161008042e-19 1.7480281866740183e-02 -2.7854269908600892e-04 -4.5564534649452381e-19 -2.7854269908600892e-04 7.7153634278667119e-03  0.0000000000000000e+00 9.7362440331238102e-19 -4.5815283809436329e-19 9.7362440331238102e-19 1.7472218872894060e-02 -2.9087514730681693e-04 -4.5815283809436329e-19 -2.9087514730681693e-04 7.7386366360019760e-03  0.0000000000000000e+00 9.7318429005360832e-19 -4.5258372783815632e-19 9.7318429005360832e-19 1.7471813830263340e-02 -2.5095023870662868e-04 -4.5258372783815632e-19 -2.5095023870662868e-04 7.7106389486987651e-03  0.0000000000000000e+00 9.7387821392190150e-19 -4.5365497966259093e-19 9.7387821392190150e-19 1.7481024526328746e-02 -2.6458734647529089e-04 -4.5365497966259093e-19 -2.6458734647529089e-04 7.7059526154641652e-03  0.0000000000000000e+00 9.7571355393555917e-19 -4.4109144646066288e-19 9.7571355393555917e-19 1.7522694357090349e-02 -1.9833280267448218e-04 -4.4109144646066288e-19 -1.9833280267448218e-04 7.6035299249256737e-03  0.0000000000000000e+00 9.7537112608859922e-19 -4.4072664966460893e-19 9.7537112608859922e-19 1.7520880102833033e-02 -1.9016371331166194e-04 -4.4072664966460893e-19 -1.9016371331166194e-04 7.6089421313529845e-03  0.0000000000000000e+00 9.7475616978744659e-19 -4.4157015902212800e-19 9.7475616978744659e-19 1.7508594741169042e-02 -1.9234527979234453e-04 -4.4157015902212800e-19 -1.9234527979234453e-04 7.6209816058931271e-03  0.0000000000000000e+00 9.7416408878302141e-19 -4.5244413476749279e-19 9.7416408878302141e-19 1.7487175249035227e-02 -2.5982274625982639e-04 -4.5244413476749279e-19 -2.5982274625982639e-04 7.6926683143882044e-03  0.0000000000000000e+00 9.7367704686830728e-19 -4.5669904354307360e-19 9.7367704686830728e-19 1.7473634050795973e-02 -2.8126905399350325e-04 -4.5669904354307360e-19 -2.8126905399350325e-04 7.7311927523236162e-03  0.0000000000000000e+00 9.7480736849872925e-19 -4.4316730916244290e-19 9.7480736849872925e-19 1.7508924301837241e-02 -2.0389865747577127e-04 -4.4316730916244290e-19 -2.0389865747577127e-04 7.6272393029559443e-03  0.0000000000000000e+00 9.7271515436763921e-19 -4.5695106532920617e-19 9.7271515436763921e-19 1.7460369453167875e-02 -2.7486434947852028e-04 -4.5695106532920617e-19 -2.7486434947852028e-04 7.7444788650371183e-03  0.0000000000000000e+00 9.7202301563084574e-19 -4.7426588716480519e-19 9.7202301563084574e-19 1.7443048963484222e-02 -3.7346238056661172e-04 -4.7426588716480519e-19 -3.7346238056661172e-04 7.8640509301853585e-03  0.0000000000000000e+00 9.7143636453989723e-19 -4.7548884006858356e-19 9.7143636453989723e-19 1.7431637613143279e-02 -3.7305020424223010e-04 -4.7548884006858356e-19 -3.7305020424223010e-04 7.8877492276014059e-03  0.0000000000000000e+00 9.7245054181771623e-19 -4.7591012998963042e-19 9.7245054181771623e-19 1.7446021834444370e-02 -3.8626919115876130e-04 -4.7591012998963042e-19 -3.8626919115876130e-04 7.8727861106379984e-03  0.0000000000000000e+00 9.7486619236819387e-19 -4.3129121931668329e-19 9.7486619236819387e-19 1.7528479052866020e-02 -1.1886171472037095e-04 -4.3129121931668329e-19 -1.1886171472037095e-04 7.5648774988440167e-03  0.0000000000000000e+00 9.7439732776405682e-19 -4.3239858442072825e-19 9.7439732776405682e-19 1.7518870949433281e-02 -1.2343504476335207e-04 -4.3239858442072825e-19 -1.2343504476335207e-04 7.5768411446461240e-03  0.0000000000000000e+00 9.7523023568608679e-19 -4.3197680629877328e-19 9.7523023568608679e-19 1.7532714212726792e-02 -1.2732824221785608e-04 -4.3197680629877328e-19 -1.2732824221785608e-04 7.5626177425025072e-03  0.0000000000000000e+00 9.7497820849868494e-19 -4.4982781443827969e-19 9.7497820849868494e-19 1.7502091005266715e-02 -2.4879483767104379e-04 -4.4982781443827969e-19 -2.4879483767104379e-04 7.6673428152871309e-03  0.0000000000000000e+00 9.7411890312081176e-19 -4.3370578699229289e-19 9.7411890312081176e-19 1.7512648817474590e-02 -1.3137173518125005e-04 -4.3370578699229289e-19 -1.3137173518125005e-04 7.5857227113487469e-03  0.0000000000000000e+00 9.7497498678862545e-19 -4.3315879474555497e-19 9.7497498678862545e-19 1.7526638832233540e-02 -1.3414064138761209e-04 -4.3315879474555497e-19 -1.3414064138761209e-04 7.5717629802101024e-03  0.0000000000000000e+00 9.7497828608221993e-19 -4.4698404875342811e-19 9.7497828608221993e-19 1.7504787645105400e-02 -2.3068876494541332e-04 -4.4698404875342811e-19 -2.3068876494541332e-04 7.6496309902090477e-03  0.0000000000000000e+00 9.7435774742747337e-19 -4.4602365113631225e-19 9.7435774742747337e-19 1.7496276136466815e-02 -2.1818581477133425e-04 -4.4602365113631225e-19 -2.1818581477133425e-04 7.6546687831743057e-03  0.0000000000000000e+00 9.7401712218691979e-19 -4.4740498818417971e-19 9.7401712218691979e-19 1.7489611660935683e-02 -2.2384357404602053e-04 -4.4740498818417971e-19 -2.2384357404602053e-04 7.6687655373861609e-03  0.0000000000000000e+00 9.7465609241436769e-19 -4.4019815065378555e-19 9.7465609241436769e-19 1.7508809615697743e-02 -1.8146056814912620e-04 -4.4019815065378555e-19 -1.8146056814912620e-04 7.6160174154650965e-03  0.0000000000000000e+00 9.7540766380664401e-19 -4.3949811456065187e-19 9.7540766380664401e-19 1.7522475955452463e-02 -1.8361240056306215e-04 -4.3949811456065187e-19 -1.8361240056306215e-04 7.5989757882990328e-03  0.0000000000000000e+00 9.7507222453065152e-19 -4.4558239895947061e-19 9.7507222453065152e-19 1.7509682149799779e-02 -2.2208586012726416e-04 -4.4558239895947061e-19 -2.2208586012726416e-04 7.6383846618353589e-03  0.0000000000000000e+00 9.7387771943732118e-19 -4.6198419018405103e-19 9.7387771943732118e-19 1.7477208472944542e-02 -3.1772930047722139e-04 -4.6198419018405103e-19 -3.1772930047722139e-04 7.7535215706060626e-03  0.0000000000000000e+00 9.7297372253786164e-19 -4.7711012431332366e-19 9.7297372253786164e-19 1.7450981643795480e-02 -4.0138547634604419e-04 -4.7711012431332366e-19 -4.0138547634604419e-04 7.8686356928507218e-03  0.0000000000000000e+00 9.7219904771561543e-19 -4.7729886949906666e-19 9.7219904771561543e-19 1.7440382889660253e-02 -3.9109245690177493e-04 -4.7729886949906666e-19 -3.9109245690177493e-04 7.8892653159070465e-03  0.0000000000000000e+00 9.7172825578039742e-19 -4.6963687094200378e-19 9.7172825578039742e-19 1.7436498767332709e-02 -3.4147155046659986e-04 -4.6963687094200378e-19 -3.4147155046659986e-04 7.8458839221809667e-03  0.0000000000000000e+00 9.7239208923030819e-19 -4.7093034513562128e-19 9.7239208923030819e-19 1.7445293987364916e-02 -3.5540900167224605e-04 -4.7093034513562128e-19 -3.5540900167224605e-04 7.8444735196343263e-03  0.0000000000000000e+00 9.7274978184638428e-19 -4.7002815401158164e-19 9.7274978184638428e-19 1.7452711589995579e-02 -3.5540715930433819e-04 -4.7002815401158164e-19 -3.5540715930433819e-04 7.8272507886287136e-03  0.0000000000000000e+00 9.7478910109561302e-19 -4.5845803031555230e-19 9.7478910109561302e-19 1.7491076990214977e-02 -3.0338645134724110e-04 -4.5845803031555230e-19 -3.0338645134724110e-04 7.7212350949024200e-03  0.0000000000000000e+00 9.7446948099978874e-19 -4.5478046785715672e-19 9.7446948099978874e-19 1.7489642378589597e-02 -2.7678132967519386e-04 -4.5478046785715672e-19 -2.7678132967519386e-04 7.7038731104253702e-03  0.0000000000000000e+00 9.7250982900830126e-19 -4.5847236991163378e-19 9.7250982900830126e-19 1.7455945778435365e-02 -2.8059089025062490e-04 -4.5847236991163378e-19 -2.8059089025062490e-04 7.7611560323812331e-03  0.0000000000000000e+00 9.7287789840153396e-19 -4.6817032351066484e-19 9.7287789840153396e-19 1.7455113579464585e-02 -3.4555265324653022e-04 -4.6817032351066484e-19 -3.4555265324653022e-04 7.8133980549489283e-03  0.0000000000000000e+00 9.7384096396063107e-19 -4.6819467661883240e-19 9.7384096396063107e-19 1.7469321209624435e-02 -3.5520230070872207e-04 -4.6819467661883240e-19 -3.5520230070872207e-04 7.7976788832298926e-03  0.0000000000000000e+00 9.7318118514846476e-19 -4.6654332607141975e-19 9.7318118514846476e-19 1.7461151540461142e-02 -3.3822481997829125e-04 -4.6654332607141975e-19 -3.3822481997829125e-04 7.7981699085657814e-03  0.0000000000000000e+00 9.7372248873972304e-19 -4.6968950942309895e-19 9.7372248873972304e-19 1.7467968703456439e-02 -3.6332081715487896e-04 -4.6968950942309895e-19 -3.6332081715487896e-04 7.8075886105072540e-03  0.0000000000000000e+00 9.7219371857590985e-19 -4.6663499662212807e-19 9.7219371857590985e-19 1.7445409134378025e-02 -3.2770991472518625e-04 -4.6663499662212807e-19 -3.2770991472518625e-04 7.8188048986348943e-03  0.0000000000000000e+00 9.7189649977130138e-19 -4.7257749540892949e-19 9.7189649977130138e-19 1.7439044049650049e-02 -3.6110664031793749e-04 -4.7257749540892949e-19 -3.6110664031793749e-04 7.8600728554736425e-03  0.0000000000000000e+00 9.7305011678076398e-19 -4.7216931286610738e-19 9.7305011678076398e-19 1.7457396983585633e-02 -3.7164184510171964e-04 -4.7216931286610738e-19 -3.7164184510171964e-04 7.8340780655171190e-03  0.0000000000000000e+00 9.7361335022804751e-19 -4.5134428477544564e-19 9.7361335022804751e-19 1.7480226507966882e-02 -2.4641265640428238e-04 -4.5134428477544564e-19 -2.4641265640428238e-04 7.6967028753052794e-03  0.0000000000000000e+00 9.7406238439721131e-19 -4.4985356279293775e-19 9.7406238439721131e-19 1.7487589022252951e-02 -2.4185392258281544e-04 -4.4985356279293775e-19 -2.4185392258281544e-04 7.6796924492705107e-03  0.0000000000000000e+00 9.7124073484838155e-19 -4.7060519911720480e-19 9.7124073484838155e-19 1.7429271336861396e-02 -3.4477041832336287e-04 -4.7060519911720480e-19 -3.4477041832336287e-04 7.8551750702221222e-03  0.0000000000000000e+00 9.7611614050813505e-19 -4.3565230807599043e-19 9.7611614050813505e-19 1.7540513556545168e-02 -1.6120679479976940e-04 -4.3565230807599043e-19 -1.6120679479976940e-04 7.5692322897615433e-03  0.0000000000000000e+00 9.7531483149741430e-19 -4.3487503080476852e-19 9.7531483149741430e-19 1.7529986559098036e-02 -1.4964103400025620e-04 -4.3487503080476852e-19 -1.4964103400025620e-04 7.5744535264450170e-03  0.0000000000000000e+00 9.7537320454891458e-19 -4.3589517393231732e-19 9.7537320454891458e-19 1.7528101170931558e-02 -1.5773723606402651e-04 -4.3589517393231732e-19 -1.5773723606402651e-04 7.5795753307342124e-03  0.0000000000000000e+00 9.7287840901494306e-19 -4.8874034901580721e-19 9.7287840901494306e-19 1.7454696843151277e-02 -4.7048515891160261e-04 -4.8874034901580721e-19 -4.7048515891160261e-04 7.9345156151274590e-03  0.0000000000000000e+00 9.7220650570282342e-19 -4.8671881359378159e-19 9.7220650570282342e-19 1.7443514566552736e-02 -4.4942698727327784e-04 -4.8671881359378159e-19 -4.4942698727327784e-04 7.9392935562847770e-03  0.0000000000000000e+00 9.7162974916483031e-19 -4.8915187820514885e-19 9.7162974916483031e-19 1.7435832570932761e-02 -4.5834115952957311e-04 -4.8915187820514885e-19 -4.5834115952957311e-04 7.9625874807793245e-03  0.0000000000000000e+00 9.7484969031712371e-19 -4.5359032254527961e-19 9.7484969031712371e-19 1.7495747665926650e-02 -2.7279047697366485e-04 -4.5359032254527961e-19 -2.7279047697366485e-04 7.6911590187218612e-03  0.0000000000000000e+00 9.7551457699474544e-19 -4.4229646967205936e-19 9.7551457699474544e-19 1.7521478107852186e-02 -2.0263421085222274e-04 -4.4229646967205936e-19 -2.0263421085222274e-04 7.6142666762464145e-03  0.0000000000000000e+00 9.7186788389348851e-19 -4.6812924090524671e-19 9.7186788389348851e-19 1.7440787817361129e-02 -3.3471330560275040e-04 -4.6812924090524671e-19 -3.3471330560275040e-04 7.8304676300647701e-03  0.0000000000000000e+00 9.7332353299290976e-19 -4.4605466950852488e-19 9.7332353299290976e-19 1.7480229059864294e-02 -2.0957314825908389e-04 -4.4605466950852488e-19 -2.0957314825908389e-04 7.6698692191529694e-03  0.0000000000000000e+00 9.7495202838189509e-19 -4.6126425517614658e-19 9.7495202838189509e-19 1.7491652521279755e-02 -3.2320122832768522e-04 -4.6126425517614658e-19 -3.2320122832768522e-04 7.7345174998885487e-03  0.0000000000000000e+00 9.7470761137106915e-19 -4.4852731924566536e-19 9.7470761137106915e-19 1.7499143653085518e-02 -2.3776571906022277e-04 -4.4852731924566536e-19 -2.3776571906022277e-04 7.6640461215382550e-03  0.0000000000000000e+00 9.7569201336753480e-19 -4.4436055571110900e-19 9.7569201336753480e-19 1.7519715735654657e-02 -2.1837565599101618e-04 -4.4436055571110900e-19 -2.1837565599101618e-04 7.6249258361606566e-03  0.0000000000000000e+00 9.7496241108588541e-19 -4.2783660575101933e-19 9.7496241108588541e-19 1.7535761655423709e-02 -9.3450333776624105e-05 -4.2783660575101933e-19 -9.3450333776624105e-05 7.5479181950318846e-03  0.0000000000000000e+00 9.7545127512049884e-19 -4.2664979372703779e-19 9.7545127512049884e-19 1.7545941131321040e-02 -8.7554166910527306e-05 -4.2664979372703779e-19 -8.7554166910527306e-05 7.5369579396471426e-03  0.0000000000000000e+00 9.7440553210409758e-19 -4.2737207656651415e-19 9.7440553210409758e-19 1.7528638210884295e-02 -8.4714641584745213e-05 -4.2737207656651415e-19 -8.4714641584745213e-05 7.5541129702072340e-03  0.0000000000000000e+00 9.7307497509066991e-19 -4.7599053500312339e-19 9.7307497509066991e-19 1.7457910459739844e-02 -3.9596700723218902e-04 -4.7599053500312339e-19 -3.9596700723218902e-04 7.8541990909702462e-03  0.0000000000000000e+00 9.7454579073906737e-19 -4.6260711575507533e-19 9.7454579073906737e-19 1.7487517467700404e-02 -3.2863687865385236e-04 -4.6260711575507533e-19 -3.2863687865385236e-04 7.7446539516387546e-03  0.0000000000000000e+00 9.7578069449358524e-19 -4.5357947021956572e-19 9.7578069449358524e-19 1.7510300901912766e-02 -2.8131975821653625e-04 -4.5357947021956572e-19 -2.8131975821653625e-04 7.6761232023739934e-03  0.0000000000000000e+00 9.7602789722249897e-19 -4.5236078193828242e-19 9.7602789722249897e-19 1.7516350906580703e-02 -2.7626651265463565e-04 -4.5236078193828242e-19 -2.7626651265463565e-04 7.6626789609438384e-03  0.0000000000000000e+00 9.7627799279243570e-19 -4.5119954924779380e-19 9.7627799279243570e-19 1.7521347785878147e-02 -2.7024188317345316e-04 -4.5119954924779380e-19 -2.7024188317345316e-04 7.6533177534246722e-03  0.0000000000000000e+00 9.7203874394215671e-19 -4.8307566785859536e-19 9.7203874394215671e-19 1.7441207179117915e-02 -4.2646610987668714e-04 -4.8307566785859536e-19 -4.2646610987668714e-04 7.9188714921996604e-03  0.0000000000000000e+00 9.7278092790879945e-19 -4.8278289198441355e-19 9.7278092790879945e-19 1.7451107257946130e-02 -4.3077167083045107e-04 -4.8278289198441355e-19 -4.3077167083045107e-04 7.9084561079341819e-03  0.0000000000000000e+00 9.7192468588906398e-19 -4.8114146810134373e-19 9.7192468588906398e-19 1.7438389437807910e-02 -4.1363110270365789e-04 -4.8114146810134373e-19 -4.1363110270365789e-04 7.9104611154048460e-03  0.0000000000000000e+00 9.7237598994273864e-19 -4.5446122624996629e-19 9.7237598994273864e-19 1.7458316836507976e-02 -2.5419035948202092e-04 -4.5446122624996629e-19 -2.5419035948202092e-04 7.7369166651851326e-03  0.0000000000000000e+00 9.7266463769496961e-19 -4.5331962290139366e-19 9.7266463769496961e-19 1.7463041111254400e-02 -2.4944855691151055e-04 -4.5331962290139366e-19 -2.4944855691151055e-04 7.7263105135557189e-03  0.0000000000000000e+00 9.7532436715271521e-19 -4.5983341000272868e-19 9.7532436715271521e-19 1.7497480513895443e-02 -3.1824197648319354e-04 -4.5983341000272868e-19 -3.182419764