<?xml version="1.0"?>
<VTKFile type="UnstructuredGrid"  version="0.1"  >
<UnstructuredGrid>
<Piece  NumberOfPoints="10186" NumberOfCells="19856">
<Points>
<DataArray  type="Float64"  NumberOfComponents="3"  format="ascii">4.63254383609858e-23 9.999999999999972e-07 3.023754611937595e-08  4.633709867519689e-23 9.999999999999972e-07 3.013251934590372e-08  4.631962282007746e-23 9.998951144266158e-07 3.018504228173001e-08  4.633147222522518e-23 9.998936697482602e-07 3.007686765015871e-08  4.631344170515283e-23 9.999999999999972e-07 3.034560238885409e-08  4.630796566557138e-23 9.998973546934168e-07 3.029228086191063e-08  4.630178283234724e-23 9.999999999999972e-07 3.045061617929963e-08  4.629570637676369e-23 9.998958912630077e-07 3.040123928851382e-08  4.628899614634556e-23 9.999999999999972e-07 3.056578840792463e-08  4.62843638218405e-23 9.998965749749843e-07 3.05040876527413e-08  4.627730765590912e-23 9.999999999999972e-07 3.067106897027275e-08  4.627179903123447e-23 9.998957376678599e-07 3.061642391819964e-08  4.626534731473833e-23 9.999999999999972e-07 3.077879814635271e-08  4.626009335820544e-23 9.998951863034553e-07 3.072130788317836e-08  4.625364864939153e-23 9.999999999999972e-07 3.088417035614584e-08  4.624760313225325e-23 9.998959823356622e-07 3.083460586927334e-08  4.624149598002669e-23 9.999999999999972e-07 3.099363187059201e-08  4.623618103230474e-23 9.998967934213799e-07 3.093829808513481e-08  4.62289051000981e-23 9.999999999999972e-07 3.110704043490139e-08  4.622374539005209e-23 9.998933150555642e-07 3.104683002694943e-08  4.621725292432384e-23 9.999999999999972e-07 3.121199390385133e-08  4.62112262394047e-23 9.998943587000166e-07 3.116063615578312e-08  4.620560074854959e-23 9.999999999999972e-07 3.131694737280127e-08  4.619962601717434e-23 9.998936968621327e-07 3.126445983092732e-08  4.619385763010376e-23 9.999999999999972e-07 3.142271998051487e-08  4.618787849200332e-23 9.998948084855472e-07 3.137138375430719e-08  4.618159099062103e-23 9.999999999999972e-07 3.153320804652192e-08  4.617651677109279e-23 9.998979947788357e-07 3.147690733171359e-08  4.616915853390935e-23 9.999999999999972e-07 3.164518966134995e-08  4.616383148763849e-23 9.998949670813474e-07 3.158813850990098e-08  4.615737064775293e-23 9.999999999999972e-07 3.175136550075309e-08  4.615176471902175e-23 9.998961342732216e-07 3.169799349106716e-08  4.614550970230213e-23 9.999999999999972e-07 3.185819939977804e-08  4.614056891262698e-23 9.998991296383468e-07 3.180183171520749e-08  4.613371164123535e-23 9.999999999999972e-07 3.196446688662618e-08  4.612820885146466e-23 9.99896893243458e-07 3.191092485400846e-08  4.61218608706949e-23 9.999999999999972e-07 3.207120913820612e-08  4.611609318837596e-23 9.998944323946736e-07 3.201759219676725e-08  4.611005263471776e-23 9.999999999999972e-07 3.217756827249928e-08  4.610441820452491e-23 9.998968877691948e-07 3.212520647713086e-08  4.609761904505872e-23 9.999999999999972e-07 3.228956009200991e-08  4.609305582873401e-23 9.998971742423502e-07 3.222783613304209e-08  4.608541865605466e-23 9.999999999999972e-07 3.239945142675479e-08  4.607986897348222e-23 9.998928787116944e-07 3.234231723518261e-08  4.607376648028042e-23 9.999999999999972e-07 3.250440489570474e-08  4.606739794153022e-23 9.998940670406979e-07 3.245583463389004e-08  4.606191363389845e-23 9.999999999999972e-07 3.26111658448029e-08  4.605560273540471e-23 9.998954934309295e-07 3.256350279594475e-08  4.604936567081649e-23 9.999999999999972e-07 3.272418784852323e-08  4.604401041741981e-23 9.99894929574267e-07 3.266735325719662e-08  4.603707867001608e-23 9.999999999999972e-07 3.283485931297571e-08  4.603099884310583e-23 9.998935328921417e-07 3.278315441753514e-08  4.602441552690113e-23 9.999999999999972e-07 3.294891876620342e-08  4.601911647487011e-23 9.998955193585822e-07 3.289216774229299e-08  4.601253422677419e-23 9.999999999999972e-07 3.305593600385214e-08  4.600674145855264e-23 9.998949639673781e-07 3.300307658884114e-08  4.600088205099993e-23 9.999999999999972e-07 3.316088947280208e-08  4.599523679187853e-23 9.998945427107831e-07 3.310628015733908e-08  4.598893966919678e-23 9.999999999999972e-07 3.326845688527933e-08  4.598353219551571e-23 9.998949148521517e-07 3.321207793034401e-08  4.59761621526589e-23 9.999999999999972e-07 3.338354652271675e-08  4.597089232533488e-23 9.998967493430461e-07 3.332776225051128e-08  4.59644398363597e-23 9.999999999999972e-07 3.348913176135076e-08  4.595862082387119e-23 9.998952696289766e-07 3.343681439527996e-08  4.595278766058545e-23 9.999999999999972e-07 3.35940852303007e-08  4.594724392346843e-23 9.998966809667545e-07 3.354069974188685e-08  4.59411354848112e-23 9.999999999999972e-07 3.369903869925064e-08  4.59355858567023e-23 9.998949809568727e-07 3.364400626229273e-08  4.5929148649909e-23 9.999999999999972e-07 3.380700650964837e-08  4.592382110928411e-23 9.99894116329777e-07 3.374910905937429e-08  4.591748665320397e-23 9.999999999999972e-07 3.391204843767873e-08  4.591214539269366e-23 9.998965429898883e-07 3.385670122525768e-08  4.5905489997371e-23 9.999999999999972e-07 3.402010470715687e-08  4.590045503661344e-23 9.998974073548646e-07 3.396286295680739e-08  4.589383782159675e-23 9.999999999999972e-07 3.412505817610682e-08  4.588782902035105e-23 9.998958683445499e-07 3.407504899076167e-08  4.588218550552167e-23 9.999999999999972e-07 3.423001290877428e-08  4.587607861927407e-23 9.998964552824003e-07 3.418147413243542e-08  4.586939226278948e-23 9.999999999999972e-07 3.434524419517735e-08  4.586435401296852e-23 9.998969238740665e-07 3.428754858927918e-08  4.585770561215276e-23 9.999999999999972e-07 3.44505081860828e-08  4.585191200133992e-23 9.99894681184113e-07 3.439737357719439e-08  4.584558374644287e-23 9.999999999999972e-07 3.455969224587104e-08  4.58399998579277e-23 9.998972693125402e-07 3.450725675488646e-08  4.583295004814924e-23 9.999999999999972e-07 3.467348648372602e-08  4.582747644157818e-23 9.998946118375595e-07 3.461740018631597e-08  4.582129787237499e-23 9.999999999999972e-07 3.477843995267597e-08  4.581511051569596e-23 9.99892516720876e-07 3.472668742802293e-08  4.580956661133346e-23 9.999999999999972e-07 3.488410575838643e-08  4.580396405275607e-23 9.998954170831295e-07 3.482998620296162e-08  4.579764904076776e-23 9.999999999999972e-07 3.499144969110405e-08  4.579151379744658e-23 9.998929996130698e-07 3.493971066324696e-08  4.578544990925855e-23 9.999999999999972e-07 3.510132969934237e-08  4.577910866426126e-23 9.998921567928083e-07 3.505060334936718e-08  4.57725115930397e-23 9.999999999999972e-07 3.521786769154638e-08  4.576775624531166e-23 9.998963521784955e-07 3.515705223455672e-08  4.576071465336655e-23 9.999999999999972e-07 3.53241250777786e-08  4.575520837182054e-23 9.998958873098895e-07 3.526960856270851e-08  4.574886276143248e-23 9.999999999999972e-07 3.543087742997448e-08  4.574320254094233e-23 9.998951707732286e-07 3.537703093698637e-08  4.573705564684896e-23 9.999999999999972e-07 3.553722646365169e-08  4.573070747197345e-23 9.998950254334598e-07 3.548943117312203e-08  4.572462493225079e-23 9.999999999999972e-07 3.564919238691632e-08  4.571874947700469e-23 9.998930225965664e-07 3.559513637959943e-08  4.57122206829666e-23 9.999999999999972e-07 3.576091993182451e-08  4.570628184927067e-23 9.998939689119554e-07 3.570838110222265e-08  4.569967478833542e-23 9.999999999999972e-07 3.587392330459651e-08  4.56947795004089e-23 9.998971131023806e-07 3.581512924074334e-08  4.568763050792625e-23 9.999999999999972e-07 3.598240853812188e-08  4.568206806055352e-23 9.998966743338849e-07 3.592918494383978e-08  4.567447931405414e-23 9.999999999999972e-07 3.61008639617657e-08  4.567019272782863e-23 9.998991393186897e-07 3.6038613416714e-08  4.56621927676349e-23 9.999999999999972e-07 3.621153133351643e-08  4.565692596619736e-23 9.998983720235017e-07 3.615734248700402e-08  4.56493893909537e-23 9.999999999999972e-07 3.632685389841741e-08  4.564488995645397e-23 9.998972659038033e-07 3.626464710529634e-08  4.56377030213322e-23 9.999999999999972e-07 3.643211535816294e-08  4.563251610338461e-23 9.998985919686415e-07 3.637742693027909e-08  4.562570636549922e-23 9.999999999999972e-07 3.65401716276411e-08  4.562076668506598e-23 9.998991224786104e-07 3.648378679217121e-08  4.561405418972497e-23 9.999999999999972e-07 3.664512509659104e-08  4.560849101180102e-23 9.99898764999867e-07 3.659399874851146e-08  4.560240174834712e-23 9.999999999999972e-07 3.675008095788545e-08  4.559701886547289e-23 9.998972161650823e-07 3.669578182158363e-08  4.5590394760298e-23 9.999999999999972e-07 3.685823029169315e-08  4.558514229744119e-23 9.998975825426547e-07 3.680312281388007e-08  4.557840870228477e-23 9.999999999999972e-07 3.696619110449727e-08  4.557247117913516e-23 9.998941423210046e-07 3.691381387959284e-08  4.556675652651052e-23 9.999999999999972e-07 3.707114457344721e-08  4.556033122971845e-23 9.998929808132508e-07 3.702199931517786e-08  4.555503088090158e-23 9.999999999999972e-07 3.717675979983741e-08  4.5549334157806e-23 9.998966333562444e-07 3.71247046761056e-08  4.554231096770325e-23 9.999999999999972e-07 3.729133059251774e-08  4.5537121709714e-23 9.998965061650033e-07 3.723457743821731e-08  4.553032145879198e-23 9.999999999999972e-07 3.739932248824807e-08  4.552369236301881e-23 9.998917816873356e-07 3.735081376209414e-08  4.551717351997518e-23 9.999999999999972e-07 3.751774859296008e-08  4.551189438904171e-23 9.998962854806441e-07 3.746158425781668e-08  4.550512734643477e-23 9.999999999999972e-07 3.762625087829583e-08  4.549942656244761e-23 9.998942539932314e-07 3.757185296881055e-08  4.549272796116792e-23 9.999999999999972e-07 3.773793461203061e-08  4.548710292383113e-23 9.998927559881533e-07 3.768135643229463e-08  4.548093079525919e-23 9.999999999999972e-07 3.78441940360118e-08  4.547509640021857e-23 9.998950439533901e-07 3.779178954806637e-08  4.546852558735597e-23 9.999999999999972e-07 3.795593021539259e-08  4.546372052271262e-23 9.998959333148558e-07 3.789514370492572e-08  4.545609583137682e-23 9.999999999999972
[...]
<PointData  Tensors="f_58"> 
<DataArray  type="Float64"  Name="f_58"  NumberOfComponents="9" format="ascii">-2.9432730472970287e-60 6.1787127832635056e-20 2.3492451725599314e-20 6.1787127832635056e-20 -8.7611018655101036e-04 4.9185856727175711e-06 2.3492451725599314e-20 4.9185856727175711e-06 1.5758029140825137e-03  2.4847595631866380e-61 6.3543739798494574e-20 2.5755334313162387e-20 6.3543739798494574e-20 -8.6513232408540598e-04 5.0643623293426098e-06 2.5755334313162387e-20 5.0643623293426098e-06 1.5559964441964876e-03  3.7958935574200241e-60 6.1540323299557921e-20 2.4434222869535436e-20 6.1540323299557921e-20 -8.7983197655813414e-04 1.8912351981348813e-05 2.4434222869535436e-20 1.8912351981348813e-05 1.5861007608006837e-03  3.4883626019241914e-61 6.3351668882065384e-20 2.6730518240370323e-20 6.3351668882065384e-20 -8.6857045074513375e-04 1.8787937519019873e-05 2.6730518240370323e-20 1.8787937519019873e-05 1.5658543273181908e-03  -3.9833304047424041e-60 5.9918157440773269e-20 2.1116794533917680e-20 5.9918157440773269e-20 -8.8749811122396604e-04 4.6053378011471550e-06 2.1116794533917680e-20 4.6053378011471550e-06 1.5956920009427471e-03  1.2332367200323427e-59 5.9713276710898408e-20 2.2097581815541278e-20 5.9713276710898408e-20 -8.9130471500343546e-04 1.8929589161030876e-05 2.2097581815541278e-20 1.8929589161030876e-05 1.6067880113817981e-03  -3.2042611748518293e-60 5.8239957156686208e-20 1.8941300524447029e-20 5.8239957156686208e-20 -8.9740432390416551e-04 5.1756288578890949e-06 1.8941300524447029e-20 5.1756288578890949e-06 1.6156972430800649e-03  1.8219701532848190e-59 5.7940545538604003e-20 1.9837016507099223e-20 5.7940545538604003e-20 -9.0232487059488452e-04 1.8814237554255556e-05 1.9837016507099223e-20 1.8814237554255556e-05 1.6263655022941094e-03  -1.9109503398643043e-60 5.6346640418853450e-20 1.6511858778228928e-20 5.6346640418853450e-20 -9.0947514701714225e-04 4.5978610574844174e-06 1.6511858778228928e-20 4.5978610574844174e-06 1.6362705001464731e-03  1.6085325222479735e-59 5.6202280935290029e-20 1.7604556077201164e-20 5.6202280935290029e-20 -9.1285280799056033e-04 1.8856776690774338e-05 1.7604556077201164e-20 1.8856776690774338e-05 1.6458811585261033e-03  -9.7775163784826293e-61 5.4576429282085783e-20 1.4260563806034483e-20 5.4576429282085783e-20 -9.2036041527504585e-04 4.9493803655445535e-06 1.4260563806034483e-20 4.9493803655445535e-06 1.6565252429452354e-03  1.0827910143959797e-59 5.4301217642047306e-20 1.5227350779226111e-20 5.4301217642047306e-20 -9.2514818878300983e-04 1.8794504474126637e-05 1.5227350779226111e-20 1.8794504474126637e-05 1.6666294067058784e-03  -1.2438748309380836e-60 5.2708308255708644e-20 1.1874037618656909e-20 5.2708308255708644e-20 -9.3265005307595231e-04 4.5318714777674563e-06 1.1874037618656909e-20 4.5318714777674563e-06 1.6773186201308517e-03  5.9034630245071801e-60 5.2524537513441083e-20 1.2949582257407943e-20 5.2524537513441083e-20 -9.3608675511458526e-04 1.9010240243008436e-05 1.2949582257407943e-20 1.9010240243008436e-05 1.6870262505768031e-03  -3.0001544178994547e-60 5.1014823984973099e-20 9.7033755760158711e-21 5.1014823984973099e-20 -9.4271364011585894e-04 4.7951353267369514e-06 9.7033755760158711e-21 4.7951353267369514e-06 1.6965048054124732e-03  6.5897523573505499e-60 5.0758170623676401e-20 1.0688157595009692e-20 5.0758170623676401e-20 -9.4698498890161858e-04 1.8939425600150675e-05 1.0688157595009692e-20 1.8939425600150675e-05 1.7067010230792281e-03  -4.5954475512908731e-60 4.9293478191791251e-20 7.4797192269464033e-21 4.9293478191791251e-20 -9.5351521382336748e-04 4.7474700666202648e-06 7.4797192269464033e-21 4.7474700666202648e-06 1.7162598711332197e-03  1.3905146571528648e-59 4.9030739482471717e-20 8.4784975141699906e-21 4.9030739482471717e-20 -9.5764893502305406e-04 1.9052115820489294e-05 8.4784975141699906e-21 1.9052115820489294e-05 1.7262774139322190e-03  -5.4282495082750988e-60 4.7433627960873954e-20 5.0685068105861685e-21 4.7433627960873954e-20 -9.6601220132919272e-04 4.4859728836680616e-06 5.0685068105861685e-21 4.4859728836680616e-06 1.7381663224007146e-03  2.2039274965084449e-59 4.7251543189679102e-20 6.2058108801348466e-21 4.7251543189679102e-20 -9.6932819030567257e-04 1.9100616798784533e-05 6.2058108801348466e-21 1.9100616798784533e-05 1.7469436028423485e-03  -3.8165702025676770e-60 4.5703820241237722e-20 2.9230942403262105e-21 4.5703820241237722e-20 -9.7662727321454743e-04 4.8944177205852947e-06 2.9230942403262105e-21 4.8944177205852947e-06 1.7570851553581832e-03  2.6611039289749632e-59 4.5428845575635600e-20 3.8584836433046800e-21 4.5428845575635600e-20 -9.8090241194439209e-04 1.8940730933643799e-05 3.8584836433046800e-21 1.8940730933643799e-05 1.7676489398441026e-03  -1.6295491482917408e-60 4.4029252019540570e-20 7.4653411253708174e-22 4.4029252019540570e-20 -9.8803141054654197e-04 4.7502828395090492e-06 7.4653411253708174e-22 4.7502828395090492e-06 1.7772441051762625e-03  2.0225016138684860e-59 4.3781910657107269e-20 1.7317657057342613e-21 4.3781910657107269e-20 -9.9090188399458888e-04 1.9013695253684006e-05 1.7317657057342613e-21 1.9013695253684006e-05 1.7864373430385610e-03  -3.0094710108710794e-61 4.2400922144619414e-20 -1.3667003472751997e-21 4.2400922144619414e-20 -9.9802613361844200e-04 4.8783893604904999e-06 -1.3667003472751997e-21 4.8783893604904999e-06 1.7962303057201209e-03  9.6678138863343909e-60 4.2138639612038078e-20 -4.1546548213161245e-22 4.2138639612038078e-20 -1.0018040377934583e-03 1.8671636186445529e-05 -4.1546548213161245e-22 1.8671636186445529e-05 1.8057339175464680e-03  -1.6988792640416911e-61 4.0672321040727284e-20 -3.6009334455479868e-21 4.0672321040727284e-20 -1.0087479048612247e-03 4.5906386062188922e-06 -3.6009334455479868e-21 4.5906386062188922e-06 1.8154852317011994e-03  2.1982465663720687e-60 4.0449675412594210e-20 -2.6053968820056157e-21 4.0449675412594210e-20 -1.0125639841860516e-03 1.8478568876058451e-05 -2.6053968820056157e-21 1.8478568876058451e-05 1.8251323521073098e-03  -2.3636036752555699e-61 3.8900935506436810e-20 -5.8751950317319048e-21 3.8900935506436810e-20 -1.0205498270380252e-03 4.7794702477939857e-06 -5.8751950317319048e-21 4.7794702477939857e-06 1.8367238267626576e-03  3.9963567936701283e-61 3.8713949656645146e-20 -4.8423023143897824e-21 3.8713949656645146e-20 -1.0237897570786866e-03 1.8325456523242025e-05 -4.8423023143897824e-21 1.8325456523242025e-05 1.8450803507105049e-03  -7.9664547573029300e-62 3.7277137585771151e-20 -7.9456436233162319e-21 3.7277137585771151e-20 -1.0307529896504098e-03 5.0060177206191734e-06 -7.9456436233162319e-21 5.0060177206191734e-06 1.8554262274953124e-03  6.5219234663988157e-61 3.7038694354431905e-20 -7.0371460773251020e-21 3.7038694354431905e-20 -1.0344095379195978e-03 1.7973507456184816e-05 -7.0371460773251020e-21 1.7973507456184816e-05 1.8643563070120171e-03  3.2856010446952957e-62 3.5575161603182770e-20 -1.0168442010559728e-20 3.5575161603182770e-20 -1.0417840073710888e-03 4.4804152700096833e-06 -1.0168442010559728e-20 4.4804152700096833e-06 1.8747883426680637e-03  3.3769038242456729e-61 3.5365800538564912e-20 -9.1927384664071611e-21 3.5365800538564912e-20 -1.0451553862934082e-03 1.7797627398895920e-05 -9.1927384664071611e-21 1.7797627398895920e-05 1.8834459197263646e-03  7.6182880039661680e-63 3.3934171381106937e-20 -1.2277086214994756e-20 3.3934171381106937e-20 -1.0526318718638234e-03 4.5785459757482400e-06 -1.2277086214994756e-20 4.5785459757482400e-06 1.8942569737783615e-03  -1.2043144127803004e-61 3.3731154792770269e-20 -1.1289398595408928e-20 3.3731154792770269e-20 -1.0555602687965667e-03 1.8114840073651325e-05 -1.1289398595408928e-20 1.8114840073651325e-05 1.9028081387935647e-03  -8.7432077811089771e-62 3.2307903612302903e-20 -1.4381662219444685e-20 3.2307903612302903e-20 -1.0637931390415805e-03 4.7538121313436991e-06 -1.4381662219444685e-20 4.7538121313436991e-06 1.9143852084329608e-03  -6.4265323504492020e-62 3.2115771509948450e-20 -1.3379505324951443e-20 3.2115771509948450e-20 -1.0661248840840936e-03 1.8148511230752298e-05 -1.3379505324951443e-20 1.8148511230752298e-05 1.9219919537482265e-03  -1.9076510577628175e-61 3.0782166250736792e-20 -1.6330858032127990e-20 3.0782166250736792e-20 -1.0731118118110455e-03 5.2295101089908349e-06 -1.6330858032127990e-20 5.2295101089908349e-06 1.9322836264456422e-03  3.3160204295798350e-61 3.0538075583991031e-20 -1.5476625080826423e-20 3.0538075583991031e-20 -1.0765580225986021e-03 1.7641542677516622e-05 -1.5476625080826423e-20 1.7641542677516622e-05 1.9407682630253227e-03  -1.9922008162451057e-61 2.9108334284239422e-20 -1.8556000557788602e-20 2.9108334284239422e-20 -1.0847997930117060e-03 4.5447834209639672e-06 -1.8556000557788602e-20 4.5447834209639672e-06 1.9525336823833087e-03  7.1136385012394356e-61 2.8913193083496933e-20 -1.7570445324034192e-20 2.8913193083496933e-20 -1.0873614167512763e-03 1.7505968508005321e-05 -1.7570445324034192e-20 1.7505968508005321e-05 1.9597481402126747e-03  -1.3813518001309182e-61 2.7434027485388431e-20 -2.0748646733275576e-20 2.7434027485388431e-20 -1.0964779354236439e-03 4.2008757722998053e-06 -2.0748646733275576e-20 4.2008757722998053e-06 1.9728615815956078e-03  7.7460134622430888e-61 2.7243747050000504e-20 -1.9700729522682490e-20 2.7243747050000504e-20 -1.0988943358884102e-03 1.7842214564457825e-05 -1.9700729522682490e-20 1.7842214564457825e-05 1.9802552738169216e-03  -8.1178921006454623e-62 2.5841473390896024e-20 -2.2774711510955214e-20 2.5841473390896024e-20 -1.1066276886301670e-03 4.2740077031124798e-06 -2.2774711510955214e-20 4.2740077031124798e-06 1.9909670328688289e-03  6.0999480335199965e-61 2.5594490782782313e-20 -2.1842349761595264e-20 2.5594490782782313e-20 -1.1098314147221194e-03 1.7951979640234779e-05 -2.1842349761595264e-20 1.7951979640234779e-05 2.0002815235990934e-03  -6.9058877183605695e-62 2.4364593842073679e-20 -2.4676726034272011e-20 2.4364593842073679e-20 -1.1157380816167115e-03 4.6445743568182407e-06 -2.4676726034272011e-20 4.6445743568182407e-06 2.0084771100142163e-03  3.6276179233389597e-61 2.4061236951029778e-20 -2.3874620713662161e-20 2.4061236951029778e-20 -1.1195143014604287e-03 1.7641688708250917e-05 -2.3874620713662161e-20 1.7641688708250917e-05 2.0183333217429576e-03  -6.8594881881568383e-62 2.2646425462226086e-20 -2.6889913058116294e-20 2.2646425462226086e-20 -1.1275891198945817e-03 4.4525993569616358e-06 -2.6889913058116294e-20 4.4525993569616358e-06 2.0288616614153880e-03  2.0835069159481773e-61 2.2486513557863345e-20 -2.5929973522656486e-20 2.2486513557863345e-20 -1.1295034306001363e-03 1.7514021522865750e-05 -2.5929973522656486e-20 1.7514021522865750e-05 2.0367253663436569e-03  -4.3900453438813177e-62 2.1054733037596192e-20 -2.8945033872575089e-20 2.1054733037596192e-20 -1.1377266537365687e-03 4.8966309596462565e-06 -2.8945033872575089e-20 4.8966309596462565e-06 2.0482356421566090e-03  1.2194211161532179e-61 2.0839468255014180e-20 -2.8048924717659485e-20 2.0839468255014180e-20 -1.1404346473986413e-03 1.7415405873465992e-05 -2.8048924717659485e-20 1.7415405873465992e-05 2.0559604526446144e-03  -6.3600845858043931e-63 1.9406647367208566e-20 -3.1108055319116972e-20 1.9406647367208566e-20 -1.1486012039096012e-03 4.3807581886192040e-06 -3.1108055319116972e-20 4.3807581886192040e-06 2.0673547050654604e-03  4.0964220246564669e-62 1.9190530442859124e-20 -3.0145878152347893e-20 1.9190530442859124e-20 -1.1513383453114455e-03 1.7630655251060383e-05 -3.0145878152347893e-20 1.7630655251060383e-05 2.0753653812747930e-03  1.7324384854360017e-62 1.7850388734199287e-20 -3.3122942193529137e-20 1.7850388734199287e-20 -1.1587431551492141e-03 4.5349889354299310e-06 -3.3122942193529137e-20 4.5349889354299310e-06 2.0860670297052769e-03  -3.3438678026479427e-63 1.7597381865050668e-20 -3.2179837720169550e-20 1.7597381865050668e-20 -1.1621177211748801e-03 1.7812424534996131e-05 -3.2179837720169550e-20 1.7812424534996131e-05 2.0944492405480836e-03  9.8867541385331439e-63 1.6350896415399215e-20 -3.5056061362385529e-20 1.6350896415399215e-20 -1.1690791026080409e-03 4.6796511523675624e-06 -3.5056061362385529e-20 4.6796511523675624e-06 2.1045038284811719e-03  -8.4775266531172577e-63 1.6109215866093651e-20 -3.4126513956963127e-20 1.6109215866093651e-20 -1.1718331375323732e-03 1.7709644237833588e-05 -3.4126513956963127e-20 1.7709644237833588e-05 2.1122188824553045e-03  -3.1883505930097502e-64 1.4769861631973498e-20 -3.7139948542200302e-20 1.4769861631973498e-20 -1.1798866985632424e-03 4.5438051147920979e-06 -3.7139948542200302e-20 4.5438051147920979e-06 2.1240983158203699e-03  1.4332103837001798e-62 1.4595361243324465e-20 -3.6110102159537336e-20 1.4595361243324465e-20 -1.1820366560482368e-03 1.7526541832267351e-05 -3.6110102159537336e-20 1.7526541832267351e-05 2.1305181640620631e-03  7.8896436974218573e-63 1.3187682558907629e-20 -3.9197465004064871e-20 1.3187682558907629e-20 -1.1904065236159255e-03 4.2945882432846896e-06 -3.9197465004064871e-20 4.2945882432846896e-06 2.1426826242800078e-03  4.3155980174858111e-62 1.2983024439062629e-20 -3.8183154281717412e-20 1.2983024439062629e-20 -1.1929218444276372e-03 1.7624371110320699e-05 -3.8183154281717412e-20 1.7624371110320699e-05 2.1498985203303273e-03  6.8266436800476641e-63 1.1718563598167255e-20 -4.1132070831757449e-20 1.1718563598167255e-20 -1.2004813836776860e-03 4.4385178763579307e-06 -4.1132070831757449e-20 4.4385178763579307e-06 2.1614308095321447e-03  1.9677625460378915e-62 1.1486066768478851e-20 -4.0197193339012816e-20 1.1486066768478851e-20 -1.2033260533947966e-03 1.7224129146375597e-05 -4.0197193339012816e-20 1.7224129146375597e-05 2.1688171555324996e-03  1.7552257759794362e-64 1.0262318226731226e-20 -4.3012584521098170e-20 1.0262318226731226e-20 -1.2102499876504029e-03 4.4872338282850693e-06 -4.3012584521098170e-20 4.4872338282850693e-06 2.1789397839594472e-03  -8.5486987976497704e-63 1.0016707206016016e-20 -4.2119603967489853e-20 1.0016707206016016e-20 -1.2130807010322894e-03 1.6980054867047547e-05 -4.2119603967489853e-20 1.6980054867047547e-05 2.1862450970601545e-03  2.1471365371116062e-63 8.8301199491715676e-21 -4.4892618787648762e-20 8.8301199491715676e-21 -1.2202485599710213e-03 4.5575463471513102e-06 -4.4892618787648762e-20 4.5575463471513102e-06 2.1971464772897946e-03  1.0713021852391770e-63 8.6074746539548398e-21 -4.3950690844279967e-20 8.6074746539548398e-21 -1.2225859132747299e-03 1.7165383946223142e-05 -4.3950690844279967e-20 1.7165383946223142e-05 2.2037204193813688e-03  4.5287582334994201e-63 7.3720400804355890e-21 -4.6793742989370572e-20 7.3720400804355890e-21 -1.2304570621295211e-03 4.6062705840246744e-06 -4.6793742989370572e-20 4.6062705840246744e-06 2.2154336050952609e-03  -2.7085514509319533e-63 7.1943235096903246e-21 -4.5815731082611321e-20 7.1943235096903246e-21 -1.2324357636049007e-03 1.7008816662950088e-05 -4.5815731082611321e-20 1.7008816662950088e-05 2.2213976453634857e-03  8.9286117540478463e-63 5.9399104003962556e-21 -4.8663918220533625e-20 5.9399104003962556e-21 -1.2401232996191195e-03 4.5826654402598817e-06 -4.8663918220533625e-20 4.5826654402598817e-06 2.2329437594198931e-03  -5.6136095756550295e-63 5.7248426908078475e-21 -4.7754448965410578e-20 5.7248426908078475e-21 -1.2426436109337783e-03 1.6644234181866165e-05 -4.7754448965410578e-20 1.6644234181866165e-05 2.2393293511982367e-03  7.0659189726199688e-63 4.4704178655682218e-21 -5.0633851468423072e-20 4.4704178655682218e-21 -1.2505947103699463e-03 3.8817973809749655e-06 -5.0633851468423072e-20 3.8817973809749655e-06 2.2510285724914704e-03  -6.7393288149866752e-63 4.2974297769283818e-21 -4.9614065284660717e-20 4.2974297769283818e-21 -1.2523642993244799e-03 1.6748311410814988e-05 -4.9614065284660717e-20 1.6748311410814988e-05 2.2570440784256893e-03  8.8768509040638952e-64 3.0429300338944617e-21 -5.2496407576124564e-20 3.0429300338944617e-21 -1.2604909253722781e-03 3.9711968148783637e-06 -5.2496407576124564e-20 3.9711968148783637e-06 2.2689410796604141e-03  4.2331227427278811e-63 2.8154065309446283e-21 -5.1533686598411698e-20 2.8154065309446283e-21 -1.2627494994686490e-03 1.6918673950420092e-05 -5.1533686598411698e-20 1.6918673950420092e-05 2.2756530696318960e-03  -2.0569320127736708e-62 1.7127959739534874e-21 -5.4258970077918175e-20 1.7127959739534874e-21 -1.2692874851398988e-03 4.2116836485024216e-06 -5.4258970077918175e-20 4.2116836485024216e-06 2.2860085513755524e-03  5.0131172419881844e-62 1.4428294323948209e-21 -5.3355147985724349e-20 1.4428294323948209e-21 -1.2722378051979340e-03 1.6790782436739352e-05 -5.3355147985724349e-20 1.6790782436739352e-05 2.2929719727945897e-03  6.7279538699875631e-63 2.3945845086919199e-22 -5.6162438834731291e-20 2.3945845086919199e-22 -1.2795915957864907e-03 4.0941066414587354e-06 -5.6162438834731291e-20 4.0941066414587354e-06 2.3038260634638714e-03  -6.3419481526562643e-63 2.0273656009192164e-23 -5.5226629959432124e-20 2.0273656009192164e-23 -1.2819645546705259e-03 1.6626387617714642e-05 -5.5226629959432124e-20 1.6626387617714642e-05 2.3104570680513247e-03  1.3089958549810625e-62 -1.2083586051260116e-21 -5.8069757490802337e-20 -1.2083586051260116e-21 -1.2900196000904241e-03 4.1686308824586508e-06 -5.8069757490802337e-20 4.1686308824586508e-06 2.3226807611862080e-03  -2.2179513749512190e-62 -1.4243445236636561e-21 -5.7129942769945390e-20 -1.4243445236636561e-21 -1.2921745277761465e-03 1.6448678429668288e-05 -5.7129942769945390e-20 1.6448678429668288e-05 2.3285747306524851e-03  5.0695225810171556e-63 -2.6064941103538185e-21 -5.9893977203893382e-20 -2.6064941103538185e-21 -1.2993287511535929e-03 4.1203883602799932e-06 -5.9893977203893382e-20 4.1203883602799932e-06 2.3395690779259297e-03  -1.7280654848062196e-62 -2.8141006019912756e-21 -5.8973695367809344e-20 -2.8141006019912756e-21 -1.3016043074067555e-03 1.6353216053712184e-05 -5.8973695367809344e-20 1.6353216053712184e-05 2.3459920597552189e-03  6.2809694852960375e-64 -4.0437715371631460e-21 -6.1784314518304618e-20 -4.0437715371631460e-21 -1.3097359447748480e-03 4.0597018035188476e-06 -6.1784314518304618e-20 4.0597018035188476e-06 2.3580164997987771e-03  -9.4454532476002892e-63 -4.2353213274072730e-21 -6.0816592267232514e-20 -4.2353213274072730e-21 -1.3113802552531127e-03 1.6605102600587326e-05 -6.0816592267232514e-20 1.6605102600587326e-05 2.3638680233380050e-03  -2.5429443939575536e-63 -5.3725153062802852e-21 -6.3545228127045884e-20 -5.3725153062802852e-21 -1.3191774807410003e-03 4.1827214272841792e-06 -6.3545228127045884e-20 4.1827214272841792e-06 2.3754893547257754e-03  2.8712375061071375e-63 -5.6435639259167312e-21 -6.2655280377768652e-20 -5.6435639259167312e-21 -1.3216426578384816e-03 1.6525761662753893e-05 -6.2655280377768652e-20 1.6525761662753893e-05 2.3817259610374947e-03  -5.2267953625152497e-65 -6.7349231086424282e-21 -6.5324384237130099e-20 -6.7349231086424282e-21 -1.3285676781518154e-03 3.8350590035609945e-06 -6.5324384237130099e-20 3.8350590035609945e-06 2.3916916973823229e-03  -2.6379727363372551e-64 -6.9721716635371856e-21 -6.4412681988412337e-20 -6.9721716635371856e-21 -1.3308810716180783e-03 1.6533689582595980e-05 -6.4412681988412337e-20 1.6533689582595980e-05 2.3987046943630508e-03  9.0186882975963023e-64 -8.1366616492779744e-21 -6.7125573272506678e-20 -8.1366616492779744e-21 -1.3385680171781012e-03 4.2675001662753986e-06 -6.7125573272506678e-20 4.2675001662753986e-06 2.4097527791315551e-03  -3.0715908217219734e-63 -8.3292082550807367e-21 -6.6212538528097485e-20 -8.3292082550807367e-21 -1.3402465178358140e-03 1.6452093586812756e-05 -6.6212538528097485e-20 1.6452093586812756e-05 2.4158840836024545e-03  3.3388306016892974e-63 -9.4246380909506649e-21 -6.8834447874294767e-20 -9.4246380909506649e-21 -1.3476407804774669e-03 4.6978600650372760e-06 -6.8834447874294767e-20 4.6978600650372760e-06 2.4272684894160101e-03  -7.4324626802390391e-63 -9.6725584526159813e-21 -6.7993653110322653e-20 -9.6725584526159813e-21 -1.3495625856973362e-03 1.6249247434613556e-05 -6.7993653110322653e-20 1.6249247434613556e-05 2.4326805212398070e-03  3.3122965909470368e-64 -1.084406426