<?xml version="1.0"?>
<VTKFile type="UnstructuredGrid"  version="0.1"  >
<UnstructuredGrid>
<Piece  NumberOfPoints="10013" NumberOfCells="19682">
<Points>
<DataArray  type="Float64"  NumberOfComponents="3"  format="ascii">3.592288698159329e-23 9.810646008487521e-07 1.049999999999998e-07  3.603353180326792e-23 9.820612008040807e-07 1.049999999999998e-07  3.600110987886184e-23 9.815685341954413e-07 1.047993641247082e-07  3.548030769489473e-23 9.77078201027437e-07 1.049999999999998e-07  3.559095251656937e-23 9.780748009827658e-07 1.049999999999998e-07  3.555374679945624e-23 9.775307370813492e-07 1.047910554060368e-07  3.536966287322008e-23 9.76081601072108e-07 1.049999999999998e-07  3.544469852931925e-23 9.765759612888196e-07 1.04818499111016e-07  3.525901805154544e-23 9.750850011167793e-07 1.049999999999998e-07  3.533867516982792e-23 9.756161250423487e-07 1.048136363891404e-07  3.51483732298708e-23 9.740884011614505e-07 1.049999999999998e-07  3.522402349789267e-23 9.745876951560852e-07 1.04817896956887e-07  3.503772840819616e-23 9.730918012061219e-07 1.049999999999998e-07  3.512012196568898e-23 9.736529527463384e-07 1.048190163505716e-07  3.492708358652152e-23 9.720952012507929e-07 1.049999999999998e-07  3.500302526439212e-23 9.725700948179852e-07 1.047908717428722e-07  3.45951491214976e-23 9.691054013848068e-07 1.049999999999998e-07  3.470579394317224e-23 9.701020013401356e-07 1.049999999999998e-07  3.466681475120761e-23 9.695425370328952e-07 1.047916290415738e-07  3.448450429982296e-23 9.68108801429478e-07 1.049999999999998e-07  3.457246893502023e-23 9.687045173362714e-07 1.048034009102008e-07  3.437385947814832e-23 9.671122014741493e-07 1.049999999999998e-07  3.444929484652201e-23 9.675872904650248e-07 1.047956275970789e-07  3.404192501312439e-23 9.641224016081629e-07 1.049999999999998e-07  3.415256983479904e-23 9.651190015634917e-07 1.049999999999998e-07  3.411990835931877e-23 9.646229792911238e-07 1.047981661452367e-07  3.393128019144975e-23 9.631258016528342e-07 1.049999999999998e-07  3.400909310181952e-23 9.636435519419924e-07 1.048168739008664e-07  3.382063536977511e-23 9.621292016975054e-07 1.049999999999998e-07  3.390284342683843e-23 9.626730665233525e-07 1.048034004755326e-07  3.472504555695692e-23 9.699868555469134e-07 1.047114510854438e-07  3.475195920906633e-23 9.703105513156404e-07 1.047927302269486e-07  3.542163426187476e-23 9.762733205283146e-07 1.047236028030481e-07  3.5199749788386e-23 9.742724702881327e-07 1.047213102271127e-07  3.409069584163345e-23 9.642774062792401e-07 1.047157161008772e-07  3.470436889957664e-23 9.696857411145083e-07 1.045965754259849e-07  3.560419001472548e-23 9.779311217809755e-07 1.047370880146833e-07  3.476111528544695e-23 9.702173459391149e-07 1.046170542460713e-07  3.475975407623999e-23 9.700873141718691e-07 1.044992831613798e-07  3.46249752387102e-23 9.691100502261235e-07 1.047359990605874e-07  3.563441649565979e-23 9.782548050403879e-07 1.047885153375507e-07  3.460910635931423e-23 9.688464613329619e-07 1.046153443260948e-07  3.538410665583063e-23 9.759288556841955e-07 1.047171565841219e-07  3.516191930353986e-23 9.739533996817245e-07 1.047429863356171e-07  3.405426766927734e-23 9.63966129099129e-07 1.047325547276636e-07  3.559410030508016e-23 9.776701542887668e-07 1.045670005476725e-07  3.458497207104551e-23 9.68597616359204e-07 1.045838816956446e-07  3.546560965208359e-23 9.765661381825099e-07 1.046203253553274e-07  3.52456643603523e-23 9.745771824403258e-07 1.046124606809093e-07  3.413066861999425e-23 9.645163745827855e-07 1.045946416249613e-07  3.563885691566024e-23 9.781295611639474e-07 1.046232757133914e-07  3.562989378734708e-23 9.779365449701634e-07 1.045109922022698e-07  3.464632242201008e-23 9.690551484048681e-07 1.044888189058226e-07  3.542183580030863e-23 9.761047165580378e-07 1.045531835359399e-07  3.519780013553665e-23 9.74104913423665e-07 1.045713142743367e-07  3.40900545149644e-23 9.641200170365576e-07 1.045641034152902e-07  3.596291124235434e-23 9.811810918506783e-07 1.047559845102276e-07  3.551970347465684e-23 9.77171742687695e-07 1.047386960221447e-07  3.531255945496604e-23 9.752771564553909e-07 1.047098972496236e-07  3.509959228161156e-23 9.733422435130253e-07 1.046932220723808e-07  3.496819881303688e-23 9.722000242912977e-07 1.047344900028768e-07  3.453761306214084e-23 9.683001851249175e-07 1.047130224910696e-07  3.441520437934899e-23 9.672234227436988e-07 1.047388195062675e-07  3.398026583574447e-23 9.633056903992459e-07 1.047386652876273e-07  3.387881580186633e-23 9.623559870022633e-07 1.047027425601853e-07  3.555956174083125e-23 9.773529229615946e-07 1.045608649506629e-07  3.605121382821724e-23 9.819530769765495e-07 1.047326106505228e-07  3.474142802413121e-23 9.698831598709384e-07 1.044601952633456e-07  3.548915054386426e-23 9.768688601875683e-07 1.04711009857483e-07  3.527065681093335e-23 9.748996655052606e-07 1.047098317635962e-07  3.505867785365082e-23 9.729846352854989e-07 1.047041382498906e-07  3.449978680065472e-23 9.679494892722031e-07 1.047030353126225e-07  3.416095332983821e-23 9.649258316315163e-07 1.047313182577555e-07  3.394795878200644e-23 9.629825171638004e-07 1.047064881225339e-07  3.607955305626421e-23 9.822543978171034e-07 1.047786744173321e-07  3.514653363247178e-23 9.736861239297744e-07 1.046142923886451e-07  3.420129447236713e-23 9.653529810568777e-07 1.047951069741951e-07  3.41892216930401e-23 9.651524328431194e-07 1.047033006893938e-07  3.403532826015499e-23 9.63651236179281e-07 1.045882528395477e-07  3.383908301692458e-23 9.619867605417749e-07 1.04691397210613e-07  3.595455120155024e-23 9.810025082541916e-07 1.046527014670412e-07  3.592408821904435e-23 9.808805735833384e-07 1.048051529495123e-07  3.495899236431874e-23 9.72011884853055e-07 1.04629274882667e-07  3.49337920328919e-23 9.719540917402183e-07 1.047984661762773e-07  3.44067440505752e-23 9.670348415314978e-07 1.046264421610925e-07  3.437659456180231e-23 9.669195057849943e-07 1.047826688673951e-07  3.598575768627642e-23 9.811613259684814e-07 1.045304361553623e-07  3.608483926387671e-23 9.821336546392934e-07 1.046103173142544e-07  3.607822362680848e-23 9.819625998648406e-07 1.044988509010722e-07  3.418963950397357e-23 9.649877321794167e-07 1.045348367193625e-07  3.531263687462763e-23 9.750832534800753e-07 1.045152969399898e-07  3.51780597285526e-23 9.739035945358915e-07 1.045478011656382e-07  3.443927325695877e-23 9.672118856662073e-07 1.045104892523068e-07  3.498770988929208e-23 9.721572702060604e-07 1.045159957661346e-07  3.388220596351564e-23 9.622044365368568e-07 1.045206562332976e-07  3.448469248935032e-23 9.676985150786376e-07 1.045880185885888e-07  3.453787919068134e-23 9.68124617086897e-07 1.045350573802575e-07  3.604336288849505e-23 9.817139159975344e-07 1.045641646499225e-07  3.504328886912709e-23 9.727074022623536e-07 1.045655168766785e-07  3.415912576246099e-23 9.647576676855939e-07 1.045796155753512e-07  3.392916066332631e-23 9.62688671844056e-07 1.045819612033557e-07  3.47872399881693e-23 9.704209449018762e-07 1.045853428059414e-07  3.60078538530355e-23 9.814094743827864e-07 1.045795599929022e-07  3.536391479637724e-23 9.756329721265103e-07 1.046031451278571e-07  3.500817775403954e-23 9.724025063575533e-07 1.04576873781528e-07  3.445812559480781e-23 9.674464317210355e-07 1.04575228543711e-07  3.552999273140349e-23 9.770527973057568e-07 1.045270732545062e-07  3.407108162627688e-23 9.639117985810703e-07 1.045267775486495e-07  3.540424697046129e-23 9.75880404126165e-07 1.044872971991599e-07  3.496890467418787e-23 9.719325569936555e-07 1.044606648732016e-07  3.398337636158879e-23 9.63159382383657e-07 1.045643401459716e-07  3.467722078919026e-23 9.693971362994143e-07 1.045524990505307e-07  3.401125558308839e-23 9.633710880469863e-07 1.045249321061869e-07  3.457077089372285e-23 9.683562860635808e-07 1.044704642338185e-07  3.535010898867621e-23 9.753830101869605e-07 1.044775348491431e-07  3.550599862561734e-23 9.767871136163726e-07 1.044775092568772e-07  3.528452419012669e-23 9.748026900779776e-07 1.044879500887778e-07  3.478925483043967e-23 9.70288596290451e-07 1.044348461087201e-07  3.596606017872648e-23 9.80952314364502e-07 1.04498843926707e-07  3.442024175795391e-23 9.669817363600405e-07 1.04451760449793e-07  3.462519935779412e-23 9.687886036964364e-07 1.044125338456547e-07  3.514067794913499e-23 9.734762390189864e-07 1.044571507844443e-07  3.391205579802825e-23 9.624433018723308e-07 1.044906581615956e-07  3.566550536221939e-23 9.781844833562408e-07 1.044381700376973e-07  3.545482657340379e-23 9.763413159936824e-07 1.044926285047485e-07  3.523550551198601e-23 9.743208069093485e-07 1.044475879213658e-07  3.412709647484308e-23 9.643232565420508e-07 1.044336986073701e-07  3.593437170642465e-23 9.807880148102179e-07 1.046199687565237e-07  3.438715877103752e-23 9.668338971474774e-07 1.046019062923278e-07  3.510558880628656e-23 9.731829684526702e-07 1.04479935119442e-07  3.493375744286201e-23 9.717925294336267e-07 1.046372154289773e-07  3.422421272598176e-23 9.653732138022548e-07 1.046089104426945e-07  3.507776278238997e-23 9.729331620752401e-07 1.044807632837156e-07  3.611103143384953e-23 9.821866796437376e-07 1.044274242248393e-07  3.422019297605939e-23 9.652068679207165e-07 1.044787712496611e-07  3.45241348828532e-23 9.678876236172214e-07 1.044218616298084e-07  3.397250271135501e-23 9.629522508708527e-07 1.044551497674493e-07  3.386937210736081e-23 9.619462885632335e-07 1.043781053592677e-07  3.56656836818282e-23 9.783372660634518e-07 1.045893465846606e-07  3.407576437607725e-23 9.63784167791323e-07 1.043569682983901e-07  3.500002227563912e-23 9.720691681550337e-07 1.043169935979786e-07  3.517823767159694e-23 9.737535152847536e-07 1.043961191460439e-07  3.456467498907108e-23 9.681485196569056e-07 1.043176048549798e-07  3.559805543419781e-23 9.774956114738601e-07 1.043568330967248e-07  3.538868955566219e-23 9.756408728963831e-07 1.04387894704362e-07  3.60786917602935e-23 9.818066762968541e-07 1.043387107615082e-07  3.472286662311435e-23 9.696550308750345
[...]
<PointData  Vectors="f_25"> 
<DataArray  type="Float64"  Name="f_25"  NumberOfComponents="3" format="ascii">0.0000000000000000e+00 8.6151242877474216e-10 2.6809122204153398e-10  0.0000000000000000e+00 8.5866128930754402e-10 2.4897052117661568e-10  0.0000000000000000e+00 8.5617862985947900e-10 2.5811797419283644e-10  0.0000000000000000e+00 7.8922859694925331e-10 3.6342232176596936e-10  0.0000000000000000e+00 8.1589113643261049e-10 3.4683564326308305e-10  0.0000000000000000e+00 7.9785362752288133e-10 3.5444887445358755e-10  0.0000000000000000e+00 7.6265030787422935e-10 3.7773108585791143e-10  0.0000000000000000e+00 7.7322142693795615e-10 3.6936995058365499e-10  0.0000000000000000e+00 7.3616463440830720e-10 3.9021977616467899e-10  0.0000000000000000e+00 7.4793458094874696e-10 3.8225168641203361e-10  0.0000000000000000e+00 7.0975156711486828e-10 4.0124033116122538e-10  0.0000000000000000e+00 7.2096572980499966e-10 3.9442707999783017e-10  0.0000000000000000e+00 6.8340014020794808e-10 4.1099979239642673e-10  0.0000000000000000e+00 6.9645609723725283e-10 4.0421193110177294e-10  0.0000000000000000e+00 6.5712405469073089e-10 4.1966467486870262e-10  0.0000000000000000e+00 6.6782500182762105e-10 4.1403372820996211e-10  0.0000000000000000e+00 5.7862547690884696e-10 4.4007955167487324e-10  0.0000000000000000e+00 6.0472806151392238e-10 4.3412703736274707e-10  0.0000000000000000e+00 5.8883003248195166e-10 4.3595345106873471e-10  0.0000000000000000e+00 5.5256321234031681e-10 4.4527271241457312e-10  0.0000000000000000e+00 5.6710986302843986e-10 4.4073427789140704e-10  0.0000000000000000e+00 5.2654948109340907e-10 4.4973304913740665e-10  0.0000000000000000e+00 5.3803365688371669e-10 4.4610876493753448e-10  0.0000000000000000e+00 4.4873517927869921e-10 4.5906822343047028e-10  0.0000000000000000e+00 4.7463477694660467e-10 4.5660871967607460e-10  0.0000000000000000e+00 4.6124316978995983e-10 4.5634137777775870e-10  0.0000000000000000e+00 4.2286670735703861e-10 4.6090858447409197e-10  0.0000000000000000e+00 4.3596491018853087e-10 4.5859653242541479e-10  0.0000000000000000e+00 3.9702897679692421e-10 4.6213943793756753e-10  0.0000000000000000e+00 4.1088282912821623e-10 4.6000912654509835e-10  0.0000000000000000e+00 5.9991262788942993e-10 4.3267719543341086e-10  0.0000000000000000e+00 6.0882386221144007e-10 4.3119589662602014e-10  0.0000000000000000e+00 7.6391792255294792e-10 3.7299604423219091e-10  0.0000000000000000e+00 7.1163743994792619e-10 3.9718377814906592e-10  0.0000000000000000e+00 4.5211052675112803e-10 4.5655959882140039e-10  0.0000000000000000e+00 5.9138204777474013e-10 4.3364795657867429e-10  0.0000000000000000e+00 8.0744561730678044e-10 3.4729701334998780e-10  0.0000000000000000e+00 6.0527243219523631e-10 4.3048357410607909e-10  0.0000000000000000e+00 6.0115414596392328e-10 4.3043531180247847e-10  0.0000000000000000e+00 5.7727063412052508e-10 4.3806715937432930e-10  0.0000000000000000e+00 8.1671754039158508e-10 3.4168676225239521e-10  0.0000000000000000e+00 5.6977973219331366e-10 4.3857998035318246e-10  0.0000000000000000e+00 7.5490476976978302e-10 3.7758863223434401e-10  0.0000000000000000e+00 7.0356976081891175e-10 4.0068324547661923e-10  0.0000000000000000e+00 4.4413788319941901e-10 4.5735642766529014e-10  0.0000000000000000e+00 7.9771906409019561e-10 3.5047048119837269e-10  0.0000000000000000e+00 5.6317445785768746e-10 4.3966269776862606e-10  0.0000000000000000e+00 7.7011600079031999e-10 3.6807864822980047e-10  0.0000000000000000e+00 7.1841233257775260e-10 3.9304851837436896e-10  0.0000000000000000e+00 4.5798998624601025e-10 4.5507728194896349e-10  0.0000000000000000e+00 8.1041634235496626e-10 3.4273770492291691e-10  0.0000000000000000e+00 8.0349125688861494e-10 3.4540541315828645e-10  0.0000000000000000e+00 5.7447098064874308e-10 4.3650300677561436e-10  0.0000000000000000e+00 7.5725746742608414e-10 3.7399653865868786e-10  0.0000000000000000e+00 7.0571341601265410e-10 3.9782205637256745e-10  0.0000000000000000e+00 4.4773228606019461e-10 4.5575274571406809e-10  0.0000000000000000e+00 8.5604671458470839e-10 2.6571824378551158e-10  0.0000000000000000e+00 7.8759475804271745e-10 3.5994077001395295e-10  0.0000000000000000e+00 7.3773870927579905e-10 3.8572313757417644e-10  0.0000000000000000e+00 6.8708187581764844e-10 4.0632960394166871e-10  0.0000000000000000e+00 6.5766790925924545e-10 4.1679393880092549e-10  0.0000000000000000e+00 5.5612081761661583e-10 4.4215698613884755e-10  0.0000000000000000e+00 5.2834092227531508e-10 4.4728847684677041e-10  0.0000000000000000e+00 4.2709129193931520e-10 4.5862467965849655e-10  0.0000000000000000e+00 4.0257725761475539e-10 4.5963923038697340e-10  0.0000000000000000e+00 7.8945752096660738e-10 3.5568399910746322e-10  0.0000000000000000e+00 8.5408332181315438e-10 2.5077154971022191e-10  0.0000000000000000e+00 5.9564790086517360e-10 4.3142751249701834e-10  0.0000000000000000e+00 7.7934379125358513e-10 3.6435462091289265e-10  0.0000000000000000e+00 7.2793733311760006e-10 3.9016711036972343e-10  0.0000000000000000e+00 6.7789445815175543e-10 4.0975260149618641e-10  0.0000000000000000e+00 5.4701269050208234e-10 4.4378045906203522e-10  0.0000000000000000e+00 4.6890891575117121e-10 4.5508079347674227e-10  0.0000000000000000e+00 4.1873386961029255e-10 4.5888155757386209e-10  0.0000000000000000e+00 8.5437411410356705e-10 2.4550889698349417e-10  0.0000000000000000e+00 6.9529222763470578e-10 4.0238972396660828e-10  0.0000000000000000e+00 4.8010584242645666e-10 4.5436060121288274e-10  0.0000000000000000e+00 4.7466897644829426e-10 4.5425573372174773e-10  0.0000000000000000e+00 4.3573453973671437e-10 4.5687233025982160e-10  0.0000000000000000e+00 3.9308482794348849e-10 4.5990936895740026e-10  0.0000000000000000e+00 8.5387158671935684e-10 2.6982839850537670e-10  0.0000000000000000e+00 8.5726503739302812e-10 2.7268464663692167e-10  0.0000000000000000e+00 6.5192422486612636e-10 4.1754029035450659e-10  0.0000000000000000e+00 6.5180583044775026e-10 4.1927522470713655e-10  0.0000000000000000e+00 5.2301029146603555e-10 4.4721116058158583e-10  0.0000000000000000e+00 5.2067119871715164e-10 4.4885313554317705e-10  0.0000000000000000e+00 8.5122456879422851e-10 2.6622550117954971e-10  0.0000000000000000e+00 8.5162413078684128e-10 2.4749885463080147e-10  0.0000000000000000e+00 8.4988289257297106e-10 2.5047278386455648e-10  0.0000000000000000e+00 4.6996471176872690e-10 4.5343004202701749e-10  0.0000000000000000e+00 7.3041187022847268e-10 3.8656244936287257e-10  0.0000000000000000e+00 7.0026599659980054e-10 3.9972151149954780e-10  0.0000000000000000e+00 5.2708853084154042e-10 4.4560884783641493e-10  0.0000000000000000e+00 6.5475649741308036e-10 4.1550419151179894e-10  0.0000000000000000e+00 3.9850644388612261e-10 4.5840792873955625e-10  0.0000000000000000e+00 5.3998041604594147e-10 4.4406284514683249e-10  0.0000000000000000e+00 5.5071902758732432e-10 4.4167205321544664e-10  0.0000000000000000e+00 8.5140580076617404e-10 2.5512058574938781e-10  0.0000000000000000e+00 6.6943065607348311e-10 4.1117497144244846e-10  0.0000000000000000e+00 4.6416987813165893e-10 4.5436991704355900e-10  0.0000000000000000e+00 4.1100059900548748e-10 4.5832713523143088e-10  0.0000000000000000e+00 6.1033405953295996e-10 4.2891350007864151e-10  0.0000000000000000e+00 8.5211891204845101e-10 2.6105752984584345e-10  0.0000000000000000e+00 7.4571818170725751e-10 3.8051068786861270e-10  0.0000000000000000e+00 6.6161063621859957e-10 4.1390139714452550e-10  0.0000000000000000e+00 5.3340794002685778e-10 4.4509087480371540e-10  0.0000000000000000e+00 7.8126892723307736e-10 3.6016766613623426e-10  0.0000000000000000e+00 4.4231086713658433e-10 4.5590395433936438e-10  0.0000000000000000e+00 7.5062326192583816e-10 3.7648165334432351e-10  0.0000000000000000e+00 6.4850704858639771e-10 4.1691359426645023e-10  0.0000000000000000e+00 4.2305634015819660e-10 4.5753249582482394e-10  0.0000000000000000e+00 5.8365186004845640e-10 4.3503221016811652e-10  0.0000000000000000e+00 4.2842072654184029e-10 4.5689138588029830e-10  0.0000000000000000e+00 5.5636398809908086e-10 4.4004683104986517e-10  0.0000000000000000e+00 7.3767850190287380e-10 3.8268969722938176e-10  0.0000000000000000e+00 7.7373471242340393e-10 3.6380261892119659e-10  0.0000000000000000e+00 7.2286503578306760e-10 3.8960446496071178e-10  0.0000000000000000e+00 6.0592501214812146e-10 4.2865334715954206e-10  0.0000000000000000e+00 8.5056777779067681e-10 2.7097136026908377e-10  0.0000000000000000e+00 5.2093001625416064e-10 4.4610749209526861e-10  0.0000000000000000e+00 5.6719126800980805e-10 4.3736777225844508e-10  0.0000000000000000e+00 6.8830329777443231e-10 4.0327923612808439e-10  0.0000000000000000e+00 4.0459181583641429e-10 4.5793058427636380e-10  0.0000000000000000e+00 8.0831693253930637e-10 3.4022514804029190e-10  0.0000000000000000e+00 7.6250868405593651e-10 3.7030972892910434e-10  0.0000000000000000e+00 7.0997883013424058e-10 3.9461799813156227e-10  0.0000000000000000e+00 4.5265331050979084e-10 4.5431526916352768e-10  0.0000000000000000e+00 8.5318675862362158e-10 2.7490390042991353e-10  0.0000000000000000e+00 5.1772987427631177e-10 4.4782989775376904e-10  0.0000000000000000e+00 6.8095072892000472e-10 4.0623244015411477e-10  0.0000000000000000e+00 6.4629992612223801e-10 4.1935002929691921e-10  0.0000000000000000e+00 4.8008504173905198e-10 4.5289922383152412e-10  0.0000000000000000e+00 6.7451607173186560e-10 4.0853389499911591e-10  0.0000000000000000e+00 8.4835368350854305e-10 2.4645084060706096e-10  0.0000000000000000e+00 4.7543160883874504e-10 4.5239832460846155e-10  0.0000000000000000e+00 5.4408041610050956e-10 4.4194675172482622e-10  0.0000000000000000e+00 4.1758408125184242e-10 4.5701392125262855e-10  0.0000000000000000e+00 3.9177607793288007e-10 4.5755762749588979e-10  0.0000000000000000e+00 8.1501773132246738e-10 3.3849872710986041e-10  0.0000000000000000e+00 4.3869896873954193e-10 4.5486482247773550e-10  0.0000000000000000e+00 6.5085100121908926e-10 4.1472062966909250e-10  0.0000000000000000e+00 6.9485660738293135e-10 4.0009040563494571e-10  0.0000000000000000e+00 5.5027275665149905e-10 4.3991114666753957e-10  0.0000000000000000e+00 7.8976742431007053e-10 3.5177446920813346e-10  0.0000000000000000e+00 7.4319719858455978e-10 3.7879481572843136e-10  0.0000000000000000e+00 8.4714011004623527e-10 2.5327302416914472e-10  0.0000000000000000e+00 5.8939754088772812e-10 4.3235333287117462e-10  0.0000000000000000e+00 6.4234724491794460e-10 4.1856744941201189e-10  0.0000000000000000e+00 7.8255598215600658e-10 3.5617354189677118e-10  0.0000000000000000e+00 8.1295792314151491e-10 3.3556955192335868e-10  0.0000000000000000e+00 6.8204679393874250e-10 4.0350178185688267e-10  0.0000000000000000e+00 8.4673738254005993e-10 2.6911322124331035e-10  0.0000000000000000e+00 5.2389764051195620e-10 4.4429840971238522e-10  0.0000000000000000e+00 4.0064132487659368e-10 4.5671090205264610e-10  0.0000000000000000e+00 8.0140725137090616e-10 3.4231012137901585e-10  0.0000000000000000e+00 4.2427751394254296e-10 4.5589850794018868e-10  0.0000000000000000e+00 7.5470816286413887e-10 3.7217319480464055e-10  0.0000000000000000e+00 5.6125614531136110e-10 4.3826703612489481e-10  0.0000000000000000e+00 6.7469662784277028e-10 4.0610811713988593e-10  0.0000000000000000e+00 7.7506766337416992e-10 3.6016691096201379e-10  0.0000000000000000e+00 6.6927953160933806e-10 4.0895061214512143e-10  0.0000000000000000e+00 6.0035136537321322e-10 4.2862129557532412e-10  0.0000000000000000e+00 4.4543734102570071e-10 4.5441575286044376e-10  0.0000000000000000e+00 7.2498357546900356e-10 3.8656220766861810e-10  0.0000000000000000e+00 7.0172417665427584e-10 3.9713420225978971e-10  0.0000000000000000e+00 4.3148686381229765e-10 4.5531651302184256e-10  0.0000000000000000e+00 4.0999867931109368e-10 4.5622781377104915e-10  0.0000000000000000e+00 8.4877274798972840e-10 2.7553435522852880e-10  0.0000000000000000e+00 5.1600560069635890e-10 4.4670625298634545e-10  0.0000000000000000e+00 4.6574547475434315e-10 4.5254118330663046e-10  0.0000000000000000e+00 8.4798271526888695e-10 2.6335742816420341e-10  0.0000000000000000e+00 5.7787993826653189e-10 4.3431321093337613e-10  0.0000000000000000e+00 4.8445646140089690e-10 4.5311206226097286e-10  0.0000000000000000e+00 5.5633503956926906e-10 4.3808772692793977e-10  0.0000000000000000e+00 7.3668574511555427e-10 3.8039318211036575e-10  0.0000000000000000e+00 8.4787016758883419e-10 2.5819040257340990e-10  0.0000000000000000e+00 7.6721940717602413e-10 3.6658552203577640e-10  0.0000000000000000e+00 6.4038170198651213e-10 4.2077253178546003e-10  0.0000000000000000e+00 4.8510197276018321e-10 4.5176600170492486e-10  0.0000000000000000e+00 4.5974719943776976e-10 4.5335766232287484e-10  0.0000000000000000e+00 7.6805065260598532e-10 3.6359818540700434e-10  0.0000000000000000e+00 6.1453586256414481e-10 4.2898923808291640e-10  0.0000000000000000e+00 7.9602416072701145e-10 3.4722395326881345e-10  0.0000000000000000e+00 6.1175709067330809e-10 4.2692219788949032e-10  0.0000000000000000e+00 7.1832878565583791e-10 3.8897403416761025e-10  0.0000000000000000e+00 5.7100040271646042e-10 4.3525796401080793e-10  0.0000000000000000e+00 6.5690791374696352e-10 4.1320051601814885e-10  0.0000000000000000e+00 6.6326570294234120e-10 4.1129092961237902e-10  0.0000000000000000e+00 7.1634462419902194e-10 3.9154211048386211e-10  0.0000000000000000e+00 7.3095802516108155e-10 3.8368503529583226e-10  0.0000000000000000e+00 4.8063583527846256e-10 4.5133370906171488e-10  0.0000000000000000e+00 5.3669883308224048e-10 4.4302940111596496e-10  0.0000000000000000e+00 6.1587164256396659e-10 4.2721948860900316e-10  0.0000000000000000e+00 6.8897734379895970e-10 4.0072310580040014e-10  0.0000000000000000e+00 8.5181116545051999e-10 2.8041865944160204e-10  0.0000000000000000e+00 5.1181232301748633e-10 4.4798784551245694e-10  0.0000000000000000e+00 8.4605691059424424e-10 2.4910530598944383e-10  0.0000000000000000e+00 5.9322759076897454e-10 4.3002914310362861e-10  0.0000000000000000e+00 6.4470834973816418e-10 4.1617295987579720e-10  0.0000000000000000e+00 8.1955280327090809e-10 3.3365799944721758e-10  0.0000000000000000e+00 5.3033722141819772e-10 4.4374433484961524e-10  0.0000000000000000e+00 8.0636152703817382e-10 3.3728113689816174e-10  0.0000000000000000e+00 5.1764097596640998e-10 4.4508738318399305e-10  0.0000000000000000e+00 4.7123915523664911e-10 4.5163459024207001e-10  0.0000000000000000e+00 5.1314774094836619e-10 4.4929386909357815e-10  0.0000000000000000e+00 8.2136468457303225e-10 3.3625691662563365e-10  0.0000000000000000e+00 5.0706985850623153e-10 4.4941600542527498e-10  0.0000000000000000e+00 8.5602997799538745e-10 2.7979761771891525e-10  0.0000000000000000e+00 7.6133166970763342e-10 3.6749412415091695e-10  0.0000000000000000e+00 4.4204699268307413e-10 4.5318721682889206e-10  0.0000000000000000e+00 4.0383417962712032e-10 4.5499291304606555e-10  0.0000000000000000e+00 6.8312747739481797e-10 4.0085927516130686e-10  0.0000000000000000e+00 5.4433846767049470e-10 4.3977266279756876e-10  0.0000000000000000e+00 8.4398385864601933e-10 2.5613151068290049e-10  0.0000000000000000e+00 8.4444175962811553e-10 2.6527813378311656e-10  0.0000000000000000e+00 7.4074583565941143e-10 3.7703809433148469e-10  0.0000000000000000e+00 6.3628589745577371e-10 4.2026270352885583e-10  0.0000000000000000e+00 6.4201020184628719e-10 4.2240086653704467e-10  0.0000000000000000e+00 7.7634723925002193e-10 3.5637214187962500e-10  0.0000000000000000e+00 7.8315359853835856e-10 3.5255968838324291e-10  0.0000000000000000e+00 7.4723854752269958e-10 3.7514257743690076e-10  0.0000000000000000e+00 7.0449225260307122e-10 3.9397579753039022e-10  0.0000000000000000e+00 6.1759344559053590e-10 4.2531234039476252e-10  0.0000000000000000e+00 5.6329641423971096e-10 4.3609823130585023e-10  0.0000000000000000e+00 5.0646929772285717e-10 4.4782055862953659e-10  0.0000000000000000e+00 7.2043825843550125e-10 3.8636150248302028e-10  0.0000000000000000e+00 8.4443699577200672e-10 2.7530468423436649e-10  0.0000000000000000e+00 6.0717035294234957e-10 4.2659807819031352e-10  0.0000000000000000e+00 7.1165934267061863e-10 3.9128947702698938e-10  0.0000000000000000e+00 8.5466101927231548e-10 2.8429659218951792e-10  0.0000000000000000e+00 6.9563001257631983e-10 3.9721137581736367e-10  0.0000000000000000e+00 4.2671618342155980e-10 4.5416233772766449e-10  0.0000000000000000e+00 8.4439732427158866e-10 2.6066553718897313e-10  0.0000000000000000e+00 5.3934492655068017e-10 4.4122497022924609e-10  0.0000000000000000e+00 6.6877277540047041e-10 4.0716056632815423e-10  0.0000000000000000e+00 4.3452873914687628e-10 4.5352753780662662e-10  0.0000000000000000e+00 4.1891546784278960e-10 4.5506248652375456e-10  0.0000000000000000e+00 5.1163768394679573e-10 4.4635718085136722e-10  0.0000000000000000e+00 7.9455861016364497e-10 3.4383110954280706e-10  0.0000000000000000e+00 8.2624751845502600e-10 3.3183336510138771e-10  0.0000000000000000e+00 8.4735833403933920e-10 2.8171450494012558e-10  0.0000000000000000e+00 6.5290942182324915e-10 4.1252957448745743e-10  0.0000000000000000e+00 7.8913323291779168e-10 3.4840319972926285e-10  0.0000000000000000e+00 6.7662166187664124e-10 4.0310463761610277e-10  0.0000000000000000e+00 8.1732644225381640e-10 3.3066001178786204e-10  0.0000000000000000e+00 4.4878069809677031e-10 4.5284026756476288e-10  0.0000000000000000e+00 7.4968923289405599e-10 3.7200851366357623e-10  0.0000000000000000e+00 8.5159993551352102e-10 2.8589931946679006e-10  0.0000000000000000e+00 7.9964662677937663e-10 3.3903735441034596e-10  0.0000000000000000e+00 8.5515704524758957e-10 2.8921448413015129e-10  0.0000000000000000e+00 5.8379448957226651e-10 4.3304980517343969e-10  0.0000000000000000e+00 4.8887681417890211e-10 4.5229267002236919e-10  0.0000000000000000e+00 8.1094613420855610e-10 3.3237084726021948e-10  0.0000000000000000e+00 4.9037500757576536e-10 4.5074164898591358e-10  0.0000000000000000e+00 5.5052986934581398e-10 4.3791382779663522e-10  0.0000000000000000e+00 7.3543073759595237e-10 3.7852278980572818e-10  0.0000000000000000e+00 7.6933015895617340e-10 3.5994420795210030e-10  0.0000000000000000e+00 6.3472826406816105e-10 4.2257703929645906e-10  0.0000000000000000e+00 7.4361532196276942e-10 3.7372811596966112e-10  0.0000000000000000e+00 4.1284292868483015e-10 4.5386370605671298e-10  0.0000000000000000e+00 6.3817199369566664e-10 4.1797580066216759e-10  0.0000000000000000e+00 5.0121379947275977e-10 4.4953233590958068e-10  0.0000000000000000e+00 5.8700041920818441e-10 4.3100686467741066e-10  0.0000000000000000e+00 5.3360457235833451e-10 4.4184014904326863e-10  0.0000000000000000e+00 6.2179094445160226e-10 4.2581208735903989e-10  0.0000000000000000e+00 5.0200006076054344e-10 4.5111270580594457e-10  0.0000000000000000e+00 8.5477808653791887e-10 2.3967172695223878e-10  0.0000000000000000e+00 6.1927980406675127e-10 4.2766540645075804e-10  0.0000000000000000e+00 6.3207156513300445e-10 4.2488855305555108e-10  0.0000000000000000e+00 5.0773617687398612e-10 4.5077924281226772e-10  0.0000000000000000e+00 5.1425564510930000e-10 4.5049696181270277e-10  0.0000000000000000e+00 4.6715287359811877e-10 4.5075449984510723e-10  0.0000000000000000e+00 5.7481389074469309e-10 4.3307572167230839e-10  0.0000000000000000e+00 8.4322082554688091e-10 2.5156449465583033e-10  0.0000000000000000e+00 5.2718845111767139e-10 4.4242675306214739e-10  0.0000000000000000e+00 5.8085242655222858e-10 4.3205380019774491e-10  0.0000000000000000e+00 7.1451049750922900e-10 3.8798285698665817e-10  0.0000000000000000e+00 6.6390630030476446e-10 4.0909997096926903e-10  0.0000000000000000e+00 6.5860736014923082e-10 4.1097710846011422e-10  0.0000000000000000e+00 7.3059264595426725e-10 3.8116704690575372e-10  0.0000000000000000e+00 7.2520861423573046e-10 3.8389943346665675e-10  0.0000000000000000e+00 4.8581850313692244e-10 4.5025327058303801e-10  0.0000000000000000e+00 6.8899430053068356e-10 3.9855066412313437e-10  0.0000000000000000e+00 6.7026906364784433e-10 4.0499301572190705e-10  0.0000000000