<?xml version="1.0"?>
<VTKFile type="UnstructuredGrid"  version="0.1"  >
<UnstructuredGrid>
<Piece  NumberOfPoints="10102" NumberOfCells="19938">
<Points>
<DataArray  type="Float64"  NumberOfComponents="3"  format="ascii">3.094387000623446e-23 9.362176028589572e-07 1.049999999999998e-07  3.10545148279091e-23 9.37214202814286e-07 1.049999999999998e-07  3.104604218909993e-23 9.366170237105078e-07 1.044791356421893e-07  3.083322518455982e-23 9.352210029036284e-07 1.049999999999998e-07  3.095512173311036e-23 9.357173904345722e-07 1.043984410296837e-07  3.072258036288518e-23 9.342244029482996e-07 1.049999999999998e-07  3.086463171054106e-23 9.347789206024705e-07 1.042750328614297e-07  3.059632895162771e-23 9.330872313309114e-07 1.049999999999998e-07  3.075947029412553e-23 9.337348712932476e-07 1.041781933837722e-07  3.044975623160136e-23 9.317670216363246e-07 1.049999999999998e-07  3.063903409232463e-23 9.325055537365178e-07 1.040336686941473e-07  3.028316687981452e-23 9.302665181510625e-07 1.049999999999998e-07  3.050032863555032e-23 9.310628064616588e-07 1.038402691061744e-07  3.010603849382264e-23 9.286710874847629e-07 1.049999999999998e-07  3.03427994722671e-23 9.294660556925816e-07 1.036624148992218e-07  2.990582970273149e-23 9.268677670108541e-07 1.049999999999998e-07  3.015866717742381e-23 9.276454888355242e-07 1.035003643110506e-07  2.965009987018127e-23 9.245643574536929e-07 1.049999999999998e-07  2.995570209245911e-23 9.256264007947319e-07 1.033094232322908e-07  2.936922844892102e-23 9.220344925974394e-07 1.049999999999998e-07  2.970520031681734e-23 9.232186528971138e-07 1.031579947415445e-07  2.907846410483031e-23 9.194155202140404e-07 1.049999999999998e-07  2.94394143556429e-23 9.208425938058328e-07 1.031759227616746e-07  2.829751699895409e-23 9.12381374024e-07 1.049999999999998e-07  2.871480795986355e-23 9.161399968561137e-07 1.049999999999998e-07  2.889777749075006e-23 9.142568662279411e-07 1.014688263495859e-07  2.78283854967732e-23 9.081558131071807e-07 1.049999999999998e-07  2.843264916062678e-23 9.098796884203227e-07 1.012811520904129e-07  2.722746484270379e-23 9.027432010396881e-07 1.049999999999998e-07  2.790434448377107e-23 9.047830409331678e-07 1.00943050094909e-07  2.658876551113481e-23 8.969903088963765e-07 1.049999999999998e-07  2.733213812717208e-23 8.993518775028901e-07 1.006658633333476e-07  2.587413663226682e-23 8.905535041912203e-07 1.049999999999998e-07  2.67404801076417e-23 8.941443876442403e-07 1.007875551472734e-07  2.414672788881825e-23 8.749943894445973e-07 1.049999999999998e-07  2.505234248150101e-23 8.83151440528892e-07 1.049999999999998e-07  2.539580494672813e-23 8.788943873176128e-07 9.764931192789539e-08  2.440660507046355e-23 8.694357510350442e-07 9.710059603360698e-08  3.111347616068899e-23 9.372017299640655e-07 1.044564506771058e-07  3.116515964958374e-23 9.382108027696148e-07 1.049999999999998e-07  3.116710283519918e-23 9.377893259728444e-07 1.045610205432023e-07  2.930618399494245e-23 9.182097378505417e-07 1.017430992119935e-07  2.643632526516861e-23 8.883599417560745e-07 9.77426925295571e-08  3.121627217655906e-23 9.382801874862426e-07 1.046090040017476e-07  3.123086934728239e-23 9.381334313005722e-07 1.043307681908167e-07  3.121972996744241e-23 9.37865119956152e-07 1.041627914601895e-07  3.107037656909137e-23 9.362283351293663e-07 1.038712624517243e-07  3.090336851611943e-23 9.343667458984256e-07 1.035139480310483e-07  3.118038442597833e-23 9.374622135912391e-07 1.041142782270293e-07  3.040907053576723e-23 9.286460986704096e-07 1.022455412032805e-07  3.022994499388832e-23 9.265957866687302e-07 1.018086486489179e-07  3.003173516221399e-23 9.243870830170066e-07 1.013852604453337e-07  2.97540204361387e-23 9.215970002237504e-07 1.010966095258135e-07  2.668250594107438e-23 8.834044426930997e-07 9.056979506603225e-08  2.85760971564122e-23 9.070901470905756e-07 9.719954607993323e-08  2.804529672152557e-23 9.017989204775585e-07 9.668934474844323e-08  2.743306337873163e-23 8.95757917485563e-07 9.616284946538884e-08  3.113182073105943e-23 9.369283539015787e-07 1.040178414140498e-07  3.080653517533485e-23 9.332487835607567e-07 1.032681828883283e-07  3.069667074462496e-23 9.31908958922628e-07 1.029179290686122e-07  2.944331999723571e-23 9.161009782875222e-07 9.839912835131999e-08  3.057064640190419e-23 9.304154020327204e-07 1.025594985445384e-07  2.904537530200729e-23 9.119147529249103e-07 9.779727015099761e-08  2.573995606418084e-23 8.741608439010064e-07 8.981593082265064e-08  3.127487854026913e-23 9.384922599788224e-07 1.04293197298795e-07  3.098896966459999e-23 9.353350395328535e-07 1.037112150646771e-07  2.764972498851277e-23 8.920224782134482e-07 9.047589590312237e-08  2.478671039944208e-23 8.640513390906559e-07 8.829249965332025e-08  3.125221227988135e-23 9.386957541063042e-07 1.047008509499494e-07  2.981903383174019e-23 9.198678297136189e-07 9.878185040727199e-08  3.127301312328486e-23 9.381739139466629e-07 1.03991653449106e-07  3.11114439672706e-23 9.359282241546658e-07 1.032012492387497e-07  3.127580447125837e-23 9.392074027249435e-07 1.049999999999998e-07  3.066104553402935e-23 9.297889682405146e-07 1.011188217568256e-07  3.050835156741006e-23 9.277330696440902e-07 1.004382681427379e-07  2.821913693764975e-23 8.989710867287309e-07 9.229569753449781e-08  2.62208124351757e-23 8.702120423398863e-07 8.153596011506813e-08  2.53897987168427e-23 8.596351539543613e-07 7.844417787399169e-08  3.034412842374417e-23 9.25708566636763e-07 9.989295571264931e-08  3.121603812636963e-23 9.373070941809123e-07 1.036380188331091e-07  3.088101752512528e-23 9.327955163481851e-07 1.02144038310233e-07  2.877626150068257e-23 9.046684048178427e-07 9.297488367466251e-08  3.125327390485806e-23 9.377914251074998e-07 1.037869596834459e-07  3.096661257820764e-23 9.34009653357073e-07 1.02587203620788e-07  3.130186195213771e-23 9.388342100056898e-07 1.043921023583894e-07  3.10441412813343e-23 9.350496571930778e-07 1.029288909797692e-07  3.077495537346166e-23 9.31377241224256e-07 1.016810861197246e-07  3.116915099221255e-23 9.366883637009296e-07 1.034416101129631e-07  3.12998688059246e-23 9.390869570504827e-07 1.046628020682676e-07  3.011839011208653e-23 9.230196732719372e-07 9.923733230035271e-08  2.781923515978233e-23 8.869568458054506e-07 8.38834516067946e-08  2.962524125372252e-23 9.139636915864694e-07 9.462324064441758e-08  2.924300876197139e-23 9.096711294753302e-07 9.377352274811689e-08  3.133223740688384e-23 9.387859135987271e-07 1.04070208178075e-07  3.134726029214558e-23 9.390355526249373e-07 1.041845330833516e-07  3.138009549841097e-23 9.390545998311555e-07 1.039078270441669e-07  3.132479573288466e-23 9.38501150986321e-07 1.038524742061682e-07  3.002886253202275e-23 9.182773577650167e-07 9.530140954586145e-08  3.138682392967571e-23 9.392727216777217e-07 1.040653445696598e-07  3.132733791707593e-23 9.390658619052106e-07 1.043942871655049e-07  3.137467177237918e-23 9.388284284575507e-07 1.037305082516335e-07  2.697644214216812e-23 8.788659444241695e-07 8.338375486566916e-08  3.135901888451731e-23 9.392402211991026e-07 1.042832896730694e-07  3.128802364184399e-23 9.376792848000801e-07 1.033618215709441e-07  3.116567352908142e-23 9.357033350178587e-07 1.024879036332152e-07  3.110979790657619e-23 9.347721884224752e-07 1.02060039903219e-07  3.089186945049125e-23 9.309117861346535e-07 1.001625626426325e-07  3.260354233135407e-23 9.511666021888888e-07 1.049999999999998e-07  3.271418715302871e-23 9.521632021442176e-07 1.049999999999998e-07  3.267957579573682e-23 9.516403740541438e-07 1.047889233015311e-07  3.149709411460766e-23 9.412006026356011e-07 1.049999999999998e-07  3.16077389362823e-23 9.421972025909299e-07 1.049999999999998e-07  3.157148429809069e-23 9.416631143024951e-07 1.047924644616655e-07  2.869365997733051e-23 8.939035967223672e-07 8.295408395876416e-08  3.122042904109843e-23 9.365122236889898e-07 1.028035984973138e-07  2.906850448877368e-23 9.025610544023264e-07 8.82352424346087e-08  3.09830393011985e-23 9.325247456550362e-07 1.009543371516701e-07  3.272198103681516e-23 9.519638223959911e-07 1.047304191875405e-07  3.274920015844918e-23 9.521907897081854e-07 1.047122184476381e-07  3.275374641828763e-23 9.520613117236846e-07 1.045417913949087e-07  3.27210132606659e-23 9.517964905197089e-07 1.045718042638687e-07  3.161948039711236e-23 9.420403125177722e-07 1.047373522496042e-07  3.164117778998968e-23 9.422977342104129e-07 1.047993412012905e-07  3.161154037377248e-23 9.418082370281125e-07 1.04576794132254e-07  3.165092501840075e-23 9.422214268357494e-07 1.046352385981469e-07  3.164566764816655e-23 9.420599989883581e-07 1.04521164932011e-07  3.27594348706251e-23 9.519290090988185e-07 1.043582517463878e-07  3.278336147567785e-23 9.523089253381181e-07 1.045226562864878e-07  3.26445230768217e-23 9.512736038298922e-07 1.047378799009685e-07  3.153531351494835e-23 9.413023167733706e-07 1.047574643835041e-07  3.26368257978217e-23 9.510888282405854e-07 1.04622435237334e-07  3.260586202403483e-23 9.509809397975574e-07 1.04793443674483e-07  3.152579890228478e-23 9.411170800835628e-07 1.046579277057887e-07  3.149719502703533e-23 9.410097661931505e-07 1.04808254619206e-07  3.266803843225584e-23 9.512524286833265e-07 1.045048972624614e-07  3.155591371193344e-23 9.412658072704003e-07 1.045354048016021e-07  3.157838910200469e-23 9.415155075269108e-07 1.045826647414128e-07  3.268842474397251e-23 9.515011136760917e-07 1.045699586835253e-07  3.264979651727202e-23 9.510231409951963e-07 1.044399181373786e-07  3.153629872428038e-23 9.410660086331021e-07 1.045122822664743e-07  3.150873540086929e-23 9.409309033736251e-07 1.046254453530839e-07  3.261868731384009e-23 9.508963238548136e-07 1.045933077909634e-07  3.16777177511348e-23 9.422942927095501e-07 1.04466776989633e-07  3.16747340701807e-23 9.424412082513453e-07 1.046405671402945e-07  3.277667593614333e-23 9.524497610965912e-07 1.047237100316737e-07  3.281213799319242e-23 9.525458666528807e-07 1.045004017741392e-07  3.262910760992525e-23 9.50801188065872e-07 1.
[...]
<PointData  Vectors="f_25"> 
<DataArray  type="Float64"  Name="f_25"  NumberOfComponents="3" format="ascii">0.0000000000000000e+00 -1.5528060124112282e-10 2.1030920741381621e-10  0.0000000000000000e+00 -1.5931617944988001e-10 2.2524988359429845e-10  0.0000000000000000e+00 -1.4913782679675255e-10 2.1528908980480470e-10  0.0000000000000000e+00 -1.5131108809793997e-10 1.9686796753699558e-10  0.0000000000000000e+00 -1.4519312641614702e-10 2.0243519094644181e-10  0.0000000000000000e+00 -1.4740820959665246e-10 1.8462902173507248e-10  0.0000000000000000e+00 -1.4066024398561230e-10 1.9014866947229956e-10  0.0000000000000000e+00 -1.4300436046522117e-10 1.7187116474620048e-10  0.0000000000000000e+00 -1.3625831963975614e-10 1.7769096045897801e-10  0.0000000000000000e+00 -1.3797465946007713e-10 1.5839851019737997e-10  0.0000000000000000e+00 -1.3089778679818037e-10 1.6426336228770308e-10  0.0000000000000000e+00 -1.3238168086803974e-10 1.4452423295969231e-10  0.0000000000000000e+00 -1.2462309122525887e-10 1.4994106495207671e-10  0.0000000000000000e+00 -1.2656231785942110e-10 1.3118336844755665e-10  0.0000000000000000e+00 -1.1829779658472078e-10 1.3566658904444573e-10  0.0000000000000000e+00 -1.2013227055820048e-10 1.1757695346754168e-10  0.0000000000000000e+00 -1.1166739931448079e-10 1.2107641605918675e-10  0.0000000000000000e+00 -1.1214343275111309e-10 1.0213014538642740e-10  0.0000000000000000e+00 -1.0449413407687693e-10 1.0659166370303224e-10  0.0000000000000000e+00 -1.0366847306359107e-10 8.7291588104763099e-11  0.0000000000000000e+00 -9.6786790827785531e-11 9.1435263131930327e-11  0.0000000000000000e+00 -9.5130165212791990e-11 7.3958227484315735e-11  0.0000000000000000e+00 -9.0378629225854279e-11 7.8541169884738402e-11  0.0000000000000000e+00 -7.4768611700399413e-11 4.5406052605945061e-11  0.0000000000000000e+00 -8.5342527527394181e-11 5.9321599596884464e-11  0.0000000000000000e+00 -6.6651988258194626e-11 4.8023714075562688e-11  0.0000000000000000e+00 -6.3765677840539368e-11 3.2643026144086486e-11  0.0000000000000000e+00 -5.6783335011285855e-11 3.3649018174952671e-11  0.0000000000000000e+00 -5.1153670180520922e-11 1.9925317419368981e-11  0.0000000000000000e+00 -4.6043682740526350e-11 2.0502565383119035e-11  0.0000000000000000e+00 -3.9543415502273852e-11 9.9008600309765373e-12  0.0000000000000000e+00 -3.6185183950291963e-11 1.0129765924539914e-11  0.0000000000000000e+00 -2.8500772594296588e-11 2.4363589805012900e-12  0.0000000000000000e+00 -2.8778970466822406e-11 3.2098091994959921e-12  0.0000000000000000e+00 -1.0911318411104091e-11 -6.2538590405338550e-12  0.0000000000000000e+00 -1.8838652285151191e-11 -3.2671260258509630e-12  0.0000000000000000e+00 -1.0499917061701620e-11 -7.7968002432085897e-12  0.0000000000000000e+00 -5.0647724462863139e-12 -8.9781662164776629e-12  0.0000000000000000e+00 -1.5058950901397748e-10 2.2434694257482708e-10  0.0000000000000000e+00 -1.6341630317392727e-10 2.4237605510427010e-10  0.0000000000000000e+00 -1.5407221983868836e-10 2.3424823867776452e-10  0.0000000000000000e+00 -7.6761445112991633e-11 6.4185099876789795e-11  0.0000000000000000e+00 -1.8248095800069907e-11 -3.6586180814639477e-12  0.0000000000000000e+00 -1.5635325897455668e-10 2.4325676439068067e-10  0.0000000000000000e+00 -1.5085432240948889e-10 2.4022788190979995e-10  0.0000000000000000e+00 -1.4737261225758977e-10 2.3522171426939710e-10  0.0000000000000000e+00 -1.3936018513388569e-10 2.0888519125421234e-10  0.0000000000000000e+00 -1.3038869486524150e-10 1.8418626488072986e-10  0.0000000000000000e+00 -1.4574587251819234e-10 2.2819735295789399e-10  0.0000000000000000e+00 -1.0465079230293034e-10 1.2728655544833067e-10  0.0000000000000000e+00 -9.6708088247001187e-11 1.1145706989745705e-10  0.0000000000000000e+00 -8.8962938979529237e-11 9.6428194056278785e-11  0.0000000000000000e+00 -8.1151804745405039e-11 8.0083303884996889e-11  0.0000000000000000e+00 -6.9469789229045747e-12 -8.1340569924362521e-12  0.0000000000000000e+00 -3.9704399148148166e-11 2.3039078963024329e-11  0.0000000000000000e+00 -3.1322264167986963e-11 1.1627191167557382e-11  0.0000000000000000e+00 -2.3233244300704492e-11 2.5290613728052840e-12  0.0000000000000000e+00 -1.4307486990190601e-10 2.1948151942360912e-10  0.0000000000000000e+00 -1.2493844897529510e-10 1.7115610210064893e-10  0.0000000000000000e+00 -1.1818188804417269e-10 1.5687919357215263e-10  0.0000000000000000e+00 -5.7837938044198376e-11 5.2265622463186903e-11  0.0000000000000000e+00 -1.1136806408554237e-10 1.4250550198207358e-10  0.0000000000000000e+00 -4.8800207807075276e-11 3.6915248205230209e-11  0.0000000000000000e+00 -3.1444956501275891e-12 -9.8409096779727798e-12  0.0000000000000000e+00 -1.5077159693796641e-10 2.4706336590188037e-10  0.0000000000000000e+00 -1.3512288142705802e-10 1.9649892339753783e-10  0.0000000000000000e+00 -1.1063535009542067e-11 -3.3434109367838699e-12  0.0000000000000000e+00 -5.1575074786407004e-13 -9.3442054287835956e-12  0.0000000000000000e+00 -1.5939393408452050e-10 2.5158226065289077e-10  0.0000000000000000e+00 -6.5888120511907241e-11 6.9211274589283570e-11  0.0000000000000000e+00 -1.4485601534468273e-10 2.4070675546457907e-10  0.0000000000000000e+00 -1.2969588234038331e-10 2.0401699554818101e-10  0.0000000000000000e+00 -1.6806628562353411e-10 2.6274255530021390e-10  0.0000000000000000e+00 -9.7901063547399352e-11 1.3564895089525827e-10  0.0000000000000000e+00 -8.9143781124310816e-11 1.1848344720989356e-10  0.0000000000000000e+00 -1.8863671072741258e-11 5.0225433889484531e-12  0.0000000000000000e+00 2.2152238920009245e-12 -9.6097009329350797e-12  0.0000000000000000e+00 2.4958092465399366e-12 -7.8167665046333193e-12  0.0000000000000000e+00 -8.1999883266618811e-11 1.0358299495395755e-10  0.0000000000000000e+00 -1.3793005040797636e-10 2.2521317919800571e-10  0.0000000000000000e+00 -1.1233626205650668e-10 1.6519411525253672e-10  0.0000000000000000e+00 -2.5269285528728776e-11 1.5255443183964477e-11  0.0000000000000000e+00 -1.4093710789008178e-10 2.3359117435026021e-10  0.0000000000000000e+00 -1.1909321796993616e-10 1.7906621432715353e-10  0.0000000000000000e+00 -1.5322192610762941e-10 2.5432839100345430e-10  0.0000000000000000e+00 -1.2481381293428149e-10 1.9205516175046979e-10  0.0000000000000000e+00 -1.0548391627326651e-10 1.5051935329855254e-10  0.0000000000000000e+00 -1.3415465937737800e-10 2.1527683123786040e-10  0.0000000000000000e+00 -1.5944956347869507e-10 2.6007986221167178e-10  0.0000000000000000e+00 -7.3531575365095798e-11 8.6291367296418584e-11  0.0000000000000000e+00 -1.5691669766219570e-13 -7.2948942437801312e-12  0.0000000000000000e+00 -3.9892807946277007e-11 4.1721232114933682e-11  0.0000000000000000e+00 -3.2430139178240033e-11 2.7741219516127546e-11  0.0000000000000000e+00 -1.4676068745772971e-10 2.5308837142285398e-10  0.0000000000000000e+00 -1.4909296504846756e-10 2.5877689285118384e-10  0.0000000000000000e+00 -1.4373150521722227e-10 2.5894738518098619e-10  0.0000000000000000e+00 -1.4261059079873618e-10 2.4702687970954357e-10  0.0000000000000000e+00 -4.7361875637902839e-11 5.9278128839029916e-11  0.0000000000000000e+00 -1.4677362526695832e-10 2.6424851658939766e-10  0.0000000000000000e+00 -1.5343619317336634e-10 2.5961075485757542e-10  0.0000000000000000e+00 -1.4048768666417769e-10 2.5377380324167560e-10  0.0000000000000000e+00 9.7932288183071851e-13 -9.5007462695607864e-12  0.0000000000000000e+00 -1.5113928534771127e-10 2.6375270673251118e-10  0.0000000000000000e+00 -1.3400999635925155e-10 2.3134974772029065e-10  0.0000000000000000e+00 -1.2027381014712656e-10 2.0038604013163934e-10  0.0000000000000000e+00 -1.1424493331342776e-10 1.8788941099177068e-10  0.0000000000000000e+00 -9.1516906479807312e-11 1.4493717004940546e-10  0.0000000000000000e+00 1.1398239709822309e-10 4.3574580035203729e-10  0.0000000000000000e+00 1.3966167057590737e-10 4.4135939875494773e-10  0.0000000000000000e+00 1.2737929502886772e-10 4.3683518145674353e-10  0.0000000000000000e+00 -1.4274681296185910e-10 3.2190446271736815e-10  0.0000000000000000e+00 -1.1698762584727569e-10 3.4101426713088459e-10  0.0000000000000000e+00 -1.2673613426822867e-10 3.2924390148872869e-10  0.0000000000000000e+00 5.2054678445455595e-13 -2.6034986308801135e-12  0.0000000000000000e+00 -1.2509782734348986e-10 2.1217909230309004e-10  0.0000000000000000e+00 -1.2049419393397902e-11 9.5009033464102825e-12  0.0000000000000000e+00 -1.0035981507983997e-10 1.6143715354623078e-10  0.0000000000000000e+00 1.3599811395283934e-10 4.3819825792581034e-10  0.0000000000000000e+00 1.4188375982541457e-10 4.3927733151086861e-10  0.0000000000000000e+00 1.3948955480404570e-10 4.3727690969886299e-10  0.0000000000000000e+00 1.3258886869896374e-10 4.3606269149569421e-10  0.0000000000000000e+00 -1.1618791647576626e-10 3.3598378165496403e-10  0.0000000000000000e+00 -1.1094527288978830e-10 3.4110659496462500e-10  0.0000000000000000e+00 -1.1893907279347529e-10 3.3032063273740790e-10  0.0000000000000000e+00 -1.0991861738312456e-10 3.3840954945967273e-10  0.0000000000000000e+00 -1.1181104179232286e-10 3.3456441613011902e-10  0.0000000000000000e+00 1.3711955757315599e-10 4.3514478789788104e-10  0.0000000000000000e+00 1.4588073145168684e-10 4.3843224524953752e-10  0.0000000000000000e+00 1.1827928218641145e-10 4.3435306259923712e-10  0.0000000000000000e+00 -1.3487267699140276e-10 3.2173608316418368e-10  0.0000000000000000e+00 1.1426709547795255e-10 4.3234846112014930e-10  0.0000000000000000e+00 1.1048409974296182e-10 4.3300575620595065e-10  0.0000000000000000e+00 -1.3688450822432416e-10 3.1635993630131599e-10  0.0000000000000000e+00 -1.4274177943704896e-10 3.1510444231459069e-10  0.0000000000000000e+00 1.1912825082252161e-10 4.3242839326952752e-10  0.0000000000000000e+00 -1.3081610463382546e-10 3.1876310538693236e-10  0.0000000000000000e+00 -1.2610142797365697e-10 3.2456724637985222e-10  0.0000000000000000e+00 1.2506735443060662e-10 4.3437910561074673e-10  0.0000000000000000e+00 1.1370548501671722e-10 4.3054232139969205e-10  0.0000000000000000e+00 -1.3481455558304197e-10 3.1381500685857603e-10  0.0000000000000000e+00 -1.4037757260294216e-10 3.1144872577915115e-10  0.0000000000000000e+00 1.0954641787609130e-10 4.3094452729970945e-10  0.0000000000000000e+00 -1.0520581954510931e-10 3.3831056285029343e-10  0.0000000000000000e+00 -1.0462332396983031e-10 3.4227779747030405e-10  0.0000000000000000e+00 1.4843712197337219e-10 4.4069128535874734e-10  0.0000000000000000e+00 1.5202182527093292e-10 4.3946464467447554e-10  0.0000000000000000e+00 1.0830472972378831e-10 4.2889150829044014e-10  0.0000000000000000e+00 1.4351085163120091e-10 4.3634384126034269e-10  0.0000000000000000e+00 -9.9469381547295023e-11 3.4184180075172177e-10  0.0000000000000000e+00 -1.3725026577188921e-10 3.0887211886370191e-10  0.0000000000000000e+00 -1.1266095836784801e-10 3.3029519223365392e-10  0.0000000000000000e+00 1.1813866836173135e-10 4.3029546519855847e-10  0.0000000000000000e+00 -1.0624769160697297e-10 3.3440136158946933e-10  0.0000000000000000e+00 -1.2986010272182626e-10 3.1340629581625862e-10  0.0000000000000000e+00 1.0497450196536276e-10 4.2947264305647097e-10  0.0000000000000000e+00 -1.4384996866697458e-10 3.0547915459220469e-10  0.0000000000000000e+00 -1.1895279126781526e-10 3.2555083614789681e-10  0.0000000000000000e+00 1.3023733568156462e-10 4.3373871922592607e-10  0.0000000000000000e+00 -1.2450118278641623e-10 3.2000968067306149e-10  0.0000000000000000e+00 -1.4655335787557483e-10 3.0784796133329116e-10  0.0000000000000000e+00 1.1240479464642087e-10 4.2840339616305608e-10  0.0000000000000000e+00 1.4971765171164033e-10 4.3750746392936106e-10  0.0000000000000000e+00 -9.8825840540923516e-11 3.4537607310853344e-10  0.0000000000000000e+00 -1.0023625259407931e-10 3.3811411523297300e-10  0.0000000000000000e+00 1.2387165018092484e-10 4.3206253313444920e-10  0.0000000000000000e+00 1.0223773712513174e-10 4.2762028515702788e-10  0.0000000000000000e+00 1.5472865107150063e-10 4.4125876779427206e-10  0.0000000000000000e+00 -9.3258964956899147e-11 3.4562076306140472e-10  0.0000000000000000e+00 -1.0674029824622207e-10 3.3024630300739165e-10  0.0000000000000000e+00 1.0504953124045664e-10 4.3092668328571528e-10  0.0000000000000000e+00 -1.4077254396405796e-10 3.0320258380211057e-10  0.0000000000000000e+00 1.4117865144149390e-10 4.3427580679557672e-10  0.0000000000000000e+00 -1.2300924381041558e-10 3.1569352229459523e-10  0.0000000000000000e+00 1.5817360541642362e-10 4.4059251907695658e-10  0.0000000000000000e+00 -1.3406201273650280e-10 3.0666340912056974e-10  0.0000000000000000e+00 -1.5064745973889434e-10 3.0218359290075413e-10  0.0000000000000000e+00 1.5586295271534713e-10 4.4301300059875740e-10  0.0000000000000000e+00 -1.3772382306045411e-10 2.4031692932710556e-10  0.0000000000000000e+00 -1.4988572735569509e-10 2.6879859589341368e-10  0.0000000000000000e+00 -1.5505330583769088e-10 2.6343637584843859e-10  0.0000000000000000e+00 6.1002278944178154e-12 -8.0831006466110549e-12  0.0000000000000000e+00 -1.2944611885062555e-10 2.2310654568500458e-10  0.0000000000000000e+00 -6.6525158517448983e-11 9.5446271397037172e-11  0.0000000000000000e+00 -1.0743558317934486e-10 1.7484309291196793e-10  0.0000000000000000e+00 6.9424121023720233e-12 -8.6787195354082029e-12  0.0000000000000000e+00 -7.5249512996852147e-11 1.1275306607193143e-10  0.0000000000000000e+00 6.1532167886996644e-12 -7.5909250197842464e-12  0.0000000000000000e+00 -8.3457693955742401e-11 1.2765382668840025e-10  0.0000000000000000e+00 -1.4225313362830909e-10 2.6447589720221521e-10  0.0000000000000000e+00 -5.8039477734501638e-11 7.7744961070338937e-11  0.0000000000000000e+00 9.9924052058337613e-11 4.2909097640590974e-10  0.0000000000000000e+00 -1.4742569476664571e-10 2.9998198972584516e-10  0.0000000000000000e+00 1.2260722160588309e-10 4.2990529585987270e-10  0.0000000000000000e+00 -1.7893936775081178e-11 2.0251245475819494e-11  0.0000000000000000e+00 -9.4184779107998915e-11 3.4171658958984295e-10  0.0000000000000000e+00 -1.3893645812898542e-10 2.5996475727815714e-10  0.0000000000000000e+00 -2.4130682117834846e-11 3.3304428305883747e-11  0.0000000000000000e+00 -1.1265499749422596e-10 3.2576901390419043e-10  0.0000000000000000e+00 3.7121706815028556e-10 4.6277407766760102e-10  0.0000000000000000e+00 3.9702897679692421e-10 4.6213943793756753e-10  0.0000000000000000e+00 3.8465976936049907e-10 4.6092947418311279e-10  0.0000000000000000e+00 3.4542795918452102e-10 4.6281260094194627e-10  0.0000000000000000e+00 3.5758403643140912e-10 4.6134615206070784e-10  0.0000000000000000e+00 3.1965883787411037e-10 4.6226045854960910e-10  0.0000000000000000e+00 3.3213153178168331e-10 4.6113364058642506e-10  0.0000000000000000e+00 2.9390823424368123e-10 4.6111750461966779e-10  0.0000000000000000e+00 3.0833996537690830e-10 4.6034659237441339e-10  0.0000000000000000e+00 2.4245176589983548e-10 4.5703474365751602e-10  0.0000000000000000e+00 2.6817167019951344e-10 4.5937875573942456e-10  0.0000000000000000e+00 2.5457745019846361e-10 4.5671691612255136e-10  0.0000000000000000e+00 2.1674266517467588e-10 4.5408075597604257e-10  0.0000000000000000e+00 2.3002190800319239e-10 4.5409296921253370e-10  0.0000000000000000e+00 1.6534882917639455e-10 4.4626372626486009e-10  0.0000000000000000e+00 -1.2704575174778466e-10 3.0986968253781117e-10  0.0000000000000000e+00 8.8301292172571180e-11 4.2938837140318280e-10  0.0000000000000000e+00 1.0097563745033775e-10 4.3120565373729808e-10  0.0000000000000000e+00 6.2625729717881016e-11 4.2223614817074332e-10  0.0000000000000000e+00 7.6106619198201951e-11 4.2422436967282948e-10  0.0000000000000000e+00 3.6953528900225572e-11 4.1423163461834587e-10  0.0000000000000000e+00 5.1343502976364232e-11 4.1666044991211762e-10  0.0000000000000000e+00 1.1279492521122288e-11 4.0528711214121166e-10  0.0000000000000000e+00 2.6244094053462537e-11 4.0841606711737270e-10  0.0000000000000000e+00 -1.4383835460319919e-11 3.9530836698004116e-10  0.0000000000000000e+00 2.0205147986827651e-12 3.9928388169240296e-10  0.0000000000000000e+00 -4.0057097910047896e-11 3.8415054147037143e-10  0.0000000000000000e+00 -2.4030699171424150e-11 3.8893059921319687e-10  0.0000000000000000e+00 -6.5716875095884055e-11 3.7160565912732282e-10  0.0000000000000000e+00 -5.0423157057625226e-11 3.7648329699547373e-10  0.0000000000000000e+00 -9.1370388106587813e-11 3.5740120178847724e-10  0.0000000000000000e+00 -7.6880120981931515e-11 3.6245986085618405e-10  0.0000000000000000e+00 -1.0200532661470275e-10 3.4733479912199964e-10  0.0000000000000000e+00 -1.6879912658758948e-10 2.9337622417942919e-10  0.0000000000000000e+00 -1.5298296343994587e-10 3.0583910739115875e-10  0.0000000000000000e+00 1.0596382413523662e-10 4.2658622623327895e-10  0.0000000000000000e+00 1.3483599604580465e-10 4.3298456661831435e-10  0.0000000000000000e+00 -1.4527801570176534e-10 2.6983961011521808e-10  0.0000000000000000e+00 -8.0142696792988901e-12 1.7675211469966984e-12  0.0000000000000000e+00 1.4735402674948224e-10 4.3543651842076374e-10  0.0000000000000000e+00 -1.1804704941957826e-10 3.2111478989565967e-10  0.0000000000000000e+00 -7.8017222515050747e-11 3.5905348451892849e-10  0.0000000000000000e+00 -8.4895263408604874e-11 3.5698798798254657e-10  0.0000000000000000e+00 3.4113255932289034e-10 4.6064755177910280e-10  0.0000000000000000e+00 3.1555762577430176e-10 4.5984781500165442e-10  0.0000000000000000e+00 8.4718789057817777e-11 4.2571582023310570e-10  0.0000000000000000e+00 3.4896107250319186e-10 4.6061107216834229e-10  0.0000000000000000e+00 3.2362990004379618e-10 4.6016813875766743e-10  0.0000000000000000e+00 9.2895415116416760e-11 4.2818175552719015e-10  0.0000000000000000e+00 3.3500542849634956e-10 4.5975329101496882e-10  0.0000000000000000e+00 3.0857823769828087e-10 4.5868824328996304e-10  0.0000000000000000e+00 7.7635468735680540e-11 4.2266188757527685e-10  0.0000000000000000e+00 -7.1593775991712378e-11 3.6178313048772808e-10  0.0000000000000000e+00 3.4471375491731044e-10 4.5935084982421645e-10  0.0000000000000000e+00 3.2001432445953611e-10 4.5869824335382685e-10  0.0000000000000000e+00 8.9933616201395034e-11 4.2559893407577928e-10  0.0000000000000000e+00 -8.1102365877606950e-11 3.5583327013900650e-10  0.0000000000000000e+00 9.5967870478256202e-11 4.2671685271495145e-10  0.0000000000000000e+00 3.7613837834250699e-10 4.6039189969665827e-10  0.0000000000000000e+00 2.9428591167379139e-10 4.5887384785793776e-10  0.0000000000000000e+00 3.0114283233514400e-10 4.5921209659538054e-10  0.0000000000000000e+00 2.4704125305367133e-10 4.5526776557907098e-10  0.0000000000000000e+00 2.2181499043670365e-10 4.5262722503827278e-10  0.0000000000000000e+00 6.9286123445438006e-11 4.2126488231289856e-10  0.0000000000000000e+00 4.3908179140450495e-11 4.1331366169706971e-10  0.0000000000000000e+00 1.9498769009642849e-11 4.0496436756843641e-10  0.0000000000000000e+00 -5.2019806343793420e-12 3.9532237694553228e-10  0.0000000000000000e+00 -4.1016610199422271e-11 3.7996149920708768e-10  0.0000000000000000e+00 -3.1546473351024184e-11 3.8421305827390866e-10  0.0000000000000000e+00 -5.7090050011170160e-11 3.7152018408564858e-10  0.0000000000000000e+00 3.9308482794348849e-10 4.5990936895740026e-10  0.0000000000000000e+00 3.6730901087092185e-10 4.6062360781798115e-10  0.0000000000000000e+00 2.6230482365192587e-10 4.5648280408128316e-10  0.0000000000000000e+00 2.3863659066296683e-10 4.5440720880996262e-10  0.0000000000000000e+00 1.6429015279102004e-10 4.4392906225065855e-10  0.0000000000000000e+00 6.0533531738212568e-11 4.1833100222803766e-10  0.0000000000000000e+00 3.5246459178126985e-11 4.1044520537765164e-10  0.0000000000000000e+00 1.1154245694489693e-11 4.0156130173500292e-10  0.0000000000000000e+00 -1.4957095921196325e-11 3.9160965101411283e-10  0.0000000000000000e+00 -6.6547568103791325e-11 3.6676138001339089e-10  0.0000000000000000e+00 -9.1773926775307523e-11 3.5293876054026902e-10  0.0000000000000000e+00 1.5942730494637830e-10 4.4224852538008566e-10  0.0000000000000000e+00 2.0722382293801015e-10 4.5136233752810388e-10  0.0000000000000000e+00 