<?xml version="1.0"?>
<VTKFile type="UnstructuredGrid"  version="0.1"  >
<UnstructuredGrid>
<Piece  NumberOfPoints="10381" NumberOfCells="20287">
<Points>
<DataArray  type="Float64"  NumberOfComponents="3"  format="ascii">4.1030663791399e-23 9.999999999999972e-07 7.792863567657969e-08  4.104251851164359e-23 9.999999999999972e-07 7.782185784922752e-08  4.102570586031411e-23 9.998971199776666e-07 7.787041272742203e-08  4.101807295283632e-23 9.999999999999972e-07 7.804204386829804e-08  4.101297964887764e-23 9.998966883850874e-07 7.798460865700906e-08  4.100632950817176e-23 9.999999999999972e-07 7.814781941432872e-08  4.100056719860206e-23 9.998959274419311e-07 7.809564912672445e-08  4.09940620323202e-23 9.999999999999972e-07 7.825831501367647e-08  4.098897787265661e-23 9.998985622489619e-07 7.820267130177402e-08  4.098149454428939e-23 9.999999999999972e-07 7.837151288250154e-08  4.097632840406858e-23 9.998949945174192e-07 7.831303985427029e-08  4.09696340823631e-23 9.999999999999972e-07 7.84783424263249e-08  4.09641708074395e-23 9.99896807583321e-07 7.842435881546902e-08  4.095798190658886e-23 9.999999999999972e-07 7.858329589527483e-08  4.095201735866943e-23 9.998942901159937e-07 7.853130988284607e-08  4.094618351930334e-23 9.999999999999972e-07 7.868956632044003e-08  4.094041444545889e-23 9.998945965684769e-07 7.863612608655197e-08  4.093433307498163e-23 9.999999999999972e-07 7.879630563370293e-08  4.092861134746824e-23 9.998940855879984e-07 7.874192796149852e-08  4.092268089920738e-23 9.999999999999972e-07 7.890125910265286e-08  4.091602955555987e-23 9.998911792782595e-07 7.885234835845994e-08  4.091087249431729e-23 9.999999999999972e-07 7.900761975837853e-08  4.090464447275328e-23 9.998941567042928e-07 7.895787349386398e-08  4.089801143692074e-23 9.999999999999972e-07 7.912346186497589e-08  4.089268268541987e-23 9.99895212985851e-07 7.906667197737706e-08  4.088554679564634e-23 9.999999999999972e-07 7.923573337257334e-08  4.087954568246275e-23 9.998931136873578e-07 7.918290028212871e-08  4.087367255481885e-23 9.999999999999972e-07 7.934268702570532e-08  4.086776212829414e-23 9.998929927091906e-07 7.928891612428725e-08  4.086106974004979e-23 9.999999999999972e-07 7.945620308950084e-08  4.085537864543617e-23 9.998911710249765e-07 7.939863493764251e-08  4.084883759093648e-23 9.999999999999972e-07 7.956638049387814e-08  4.084357067161895e-23 9.998955228286238e-07 7.950934351425628e-08  4.083683060288736e-23 9.999999999999972e-07 7.967452982768584e-08  4.083165059013727e-23 9.998944804633205e-07 7.961566769799125e-08  4.082511126934015e-23 9.999999999999972e-07 7.978008820007833e-08  4.081884550029551e-23 9.998938012331319e-07 7.973032646348223e-08  4.081317159636978e-23 9.999999999999972e-07 7.988763121355893e-08  4.08068006315587e-23 9.998938730067422e-07 7.983888876980224e-08  4.080040102481433e-23 9.999999999999972e-07 8.000265829615571e-08  4.079540331770567e-23 9.998951116323047e-07 7.994278527220779e-08  4.078683595852034e-23 9.999999999999972e-07 8.012484155116946e-08  4.078194953170691e-23 9.998920003920189e-07 8.006085496314339e-08  4.077518378274609e-23 9.999999999999972e-07 8.022979502011942e-08  4.076884940753025e-23 9.998907979899197e-07 8.017764798976534e-08  4.076353160697184e-23 9.999999999999972e-07 8.033474848906937e-08  4.075700442008041e-23 9.998907662463965e-07 8.028430640837273e-08  4.075184663215026e-23 9.999999999999972e-07 8.043999738557396e-08  4.074616617691683e-23 9.998949548320778e-07 8.038611720979971e-08  4.073988277536462e-23 9.999999999999972e-07 8.054775822749744e-08  4.073405826287652e-23 9.998942811716886e-07 8.049450194373086e-08  4.072823059959036e-23 9.999999999999972e-07 8.06527116964474e-08  4.072171484490231e-23 9.998923023234548e-07 8.060370272067525e-08  4.071653560716421e-23 9.999999999999972e-07 8.075805082351248e-08  4.071045512145362e-23 9.99894293822677e-07 8.070711279255313e-08  4.070439235453762e-23 9.999999999999972e-07 8.086742751952081e-08  4.069877415655103e-23 9.998955466731232e-07 8.081357842136463e-08  4.069170064328183e-23 9.999999999999972e-07 8.09817442916853e-08  4.068641558894424e-23 9.998957056636689e-07 8.092505349284776e-08  4.067944221062225e-23 9.999999999999972e-07 8.109215843720101e-08  4.067428819204027e-23 9.998965725053369e-07 8.103515421487124e-08  4.066699834608413e-23 9.999999999999972e-07 8.120424280459483e-08  4.066165813444065e-23 9.998920546338537e-07 8.114439778878674e-08  4.065521366093099e-23 9.999999999999972e-07 8.131038981192355e-08  4.064867940504563e-23 9.998921251794205e-07 8.126137033608775e-08  4.064284045154345e-23 9.999999999999972e-07 8.142183777429778e-08  4.06375332521704e-23 9.998946432421975e-07 8.136428401873578e-08  4.063055613144389e-23 9.999999999999972e-07 8.153248509314352e-08  4.062546501478935e-23 9.998951042191827e-07 8.147344601446554e-08  4.061872667858015e-23 9.999999999999972e-07 8.163903533216178e-08  4.061366521144374e-23 9.998972241056168e-07 8.15818490808004e-08  4.060690729983667e-23 9.999999999999972e-07 8.174549483157161e-08  4.060149892498071e-23 9.998962517077913e-07 8.169046084933768e-08  4.059506767206257e-23 9.999999999999972e-07 8.185213671803489e-08  4.058867521359565e-23 9.998929403253023e-07 8.180265519047916e-08  4.058255359922289e-23 9.999999999999972e-07 8.196485346559018e-08  4.057706907047637e-23 9.998963277795014e-07 8.191058148833271e-08  4.057046508519643e-23 9.999999999999972e-07 8.207373712012029e-08  4.056482673151468e-23 9.998973225551928e-07 8.202184545039608e-08  4.055881290942217e-23 9.999999999999972e-07 8.217869058907023e-08  4.055312316660336e-23 9.998962721109075e-07 8.212621134725779e-08  4.054692867124326e-23 9.999999999999972e-07 8.22857342903385e-08  4.054145805328846e-23 9.998965051496069e-07 8.223151438591359e-08  4.053492168319415e-23 9.999999999999972e-07 8.23938836241462e-08  4.052939781855432e-23 9.998970080987735e-07 8.234064627238962e-08  4.052291469514503e-23 9.999999999999972e-07 8.25020329579539e-08  4.051698063047124e-23 9.998955692626972e-07 8.245105152356116e-08  4.051023326882401e-23 9.999999999999972e-07 8.261625709166163e-08  4.050539263000308e-23 9.998952267049353e-07 8.255508439498012e-08  4.049837738311599e-23 9.999999999999972e-07 8.272304541657522e-08  4.049289100178064e-23 9.998961894337433e-07 8.266865178019633e-08  4.048672520734173e-23 9.999999999999972e-07 8.282799888552517e-08  4.048129094908083e-23 9.998963519977135e-07 8.277329833019915e-08  4.047401337266011e-23 9.999999999999972e-07 8.294249691339592e-08  4.046955391488171e-23 9.998958242965198e-07 8.287848843469669e-08  4.046227964853447e-23 9.999999999999972e-07 8.304818490459571e-08  4.045641019319852e-23 9.998932541035284e-07 8.299430636185461e-08  4.045029570002399e-23 9.999999999999972e-07 8.315612671668809e-08  4.044482124117367e-23 9.998955466397812e-07 8.310098289814892e-08  4.043863081692724e-23 9.999999999999972e-07 8.32611946430238e-08  4.043215482966676e-23 9.99895149297924e-07 8.321467444857694e-08  4.042663669350641e-23 9.999999999999972e-07 8.336922810256117e-08  4.042092098398427e-23 9.998959251971341e-07 8.331663583424619e-08  4.041498198532002e-23 9.999999999999972e-07 8.347420438145189e-08  4.040862818303352e-23 9.998943386396115e-07 8.34257729842859e-08  4.040332980954577e-23 9.999999999999972e-07 8.357915785040183e-08  4.039737495930887e-23 9.99895277899595e-07 8.35280722726155e-08  4.039034189928916e-23 9.999999999999972e-07 8.36961425459858e-08  4.038526176305936e-23 9.998955324685156e-07 8.363743281376725e-08  4.037705115455894e-23 9.999999999999972e-07 8.381585493201481e-08  4.037238783441592e-23 9.998970597428923e-07 8.375491812862674e-08  4.036531172928689e-23 9.999999999999972e-07 8.392159427457622e-08  4.035918228843448e-23 9.998950998607194e-07 8.387190323037629e-08  4.035305455846802e-23 9.999999999999972e-07 8.403199705444121e-08  4.034760383881054e-23 9.998949316884551e-07 8.397602446093589e-08  4.03406089399187e-23 9.999999999999972e-07 8.41440972205635e-08  4.03354016006036e-23 9.99896096566077e-07 8.408709732944137e-08  4.032882474693606e-23 9.999999999999972e-07 8.425023979481445e-08  4.03235156959192e-23 9.998972345481479e-07 8.419529402332755e-08  4.031696010831147e-23 9.999999999999972e-07 8.43571069589916e-08  4.031144544255094e-23 9.998981989007331e-07 8.430497755305596e-08  4.030516574041848e-23 9.999999999999972e-07 8.446334118068755e-08  4.029878196837402e-23 9.998955128637661e-07 8.441635395125759e-08  4.029331127670425e-23 9.999999999999972e-07 8.457011669741967e-08  4.028696074622158e-23 9.998933728430822e-07 8.452069003393542e-08  4.028072544806718e-23 9.999999999999972e-07 8.468347976373977e-08  4.027530455789317e-23 9.998953367656587e-07 8.462764356733667e-08  4.026796580092003e-23 9.999999999999972e-07 8.479840844801432e-08  4.026303403560523e-23 9.998960576486677e-07 8.473888748955289e-08  4.02553989746028e-23 9.999999999999972e-07 8.491160035665338e-08  4.02500341123569e-23 9.998953800444774e-07 8.485530278435658e-08  4.024338379011019e-23 9.999999999999972e-07 8.501982351746076e-08  4.023733227424632e-23 9.998931247739058e-07 8.496745550054847e-08  4.023083069360232e-23 9.999999999999972e-07 8.513289175897113e-08  4.022591421807489e-23 9.998958333344035e-07 8.507300876808409e-08  4.021893823130293e-23 9.999999999999972e-07 8.52400095365313e-08  4.021318929689361e-23 9.998929690801102e-07 8.518476041437148e-08  4.020699882426747e-23 9.999999999999972e-07 8.534755015468311e-08  4.020141408891328e-23 9.998958559441525e-07 8.529370892295859e-08  4.019422893452352e-23 9.999999999999972e-07 8.54625710960679e-08  4.018869933727793e-23 9.998971765342856e-07 8.540955381454585e-08  4.018216386038509e-23 9.999999999999972e-07 8.557124362285594e-08  4.017638372451043e-23 9.998962952312419e-07 8.551960168964318e-08  4.016935815357094e-23 9.999999999999972e-07 8.568658717572881e-08  4.016424275471094e-23 9.998972682656653e-07 8.562993085819645e-08  4.015762717544473e-23 9.999999999999972e-07 8.579225043316467e-08  4.015213005645381e-23 9.99897
[...]
<PointData  Vectors="f_25"> 
<DataArray  type="Float64"  Name="f_25"  NumberOfComponents="3" format="ascii">0.0000000000000000e+00 6.6232720119359925e-10 7.2794176385790428e-11  0.0000000000000000e+00 6.6204085524731470e-10 7.2690035142646570e-11  0.0000000000000000e+00 6.6222717180069113e-10 7.3015026094558048e-11  0.0000000000000000e+00 6.6263451796410005e-10 7.2902296408280100e-11  0.0000000000000000e+00 6.6253389386611278e-10 7.3129337708383010e-11  0.0000000000000000e+00 6.6292404043280957e-10 7.3000886929965107e-11  0.0000000000000000e+00 6.6283545026700186e-10 7.3238955686903287e-11  0.0000000000000000e+00 6.6322941368622251e-10 7.3101463541121287e-11  0.0000000000000000e+00 6.6312722309783057e-10 7.3332986428851490e-11  0.0000000000000000e+00 6.6354551325477560e-10 7.3202130089740649e-11  0.0000000000000000e+00 6.6343443356579989e-10 7.3445228897152093e-11  0.0000000000000000e+00 6.6384674716534369e-10 7.3294752391120284e-11  0.0000000000000000e+00 6.6374459035850287e-10 7.3540791494396918e-11  0.0000000000000000e+00 6.6414556441838803e-10 7.3383608656754353e-11  0.0000000000000000e+00 6.6404764934605714e-10 7.3642486899948716e-11  0.0000000000000000e+00 6.6445090552849026e-10 7.3471338317674516e-11  0.0000000000000000e+00 6.6434607709741671e-10 7.3732016012861199e-11  0.0000000000000000e+00 6.6476053203074109e-10 7.3557203323978389e-11  0.0000000000000000e+00 6.6465054320457990e-10 7.3822660667356530e-11  0.0000000000000000e+00 6.6506794216942445e-10 7.3639473642761991e-11  0.0000000000000000e+00 6.6497244961655979e-10 7.3921914844776445e-11  0.0000000000000000e+00 6.6538227675384121e-10 7.3720547180800334e-11  0.0000000000000000e+00 6.6528042033431922e-10 7.3997452066530220e-11  0.0000000000000000e+00 6.6572806384508991e-10 7.3806281804969191e-11  0.0000000000000000e+00 6.6560194612236140e-10 7.4079054146502179e-11  0.0000000000000000e+00 6.6606669560535157e-10 7.3886909083431526e-11  0.0000000000000000e+00 6.6595032569841140e-10 7.4173410722244459e-11  0.0000000000000000e+00 6.6639228359372002e-10 7.3961412958778052e-11  0.0000000000000000e+00 6.6627041804763551e-10 7.4251712657284676e-11  0.0000000000000000e+00 6.6674124877671237e-10 7.4038045552996748e-11  0.0000000000000000e+00 6.6660545038479288e-10 7.4335726411800662e-11  0.0000000000000000e+00 6.6708321807974437e-10 7.4109901937600750e-11  0.0000000000000000e+00 6.6694442253030146e-10 7.4398820487385092e-11  0.0000000000000000e+00 6.6742212377004138e-10 7.4178202664309039e-11  0.0000000000000000e+00 6.6727516462489175e-10 7.4473508055163032e-11  0.0000000000000000e+00 6.6775611958907121e-10 7.4242650564086098e-11  0.0000000000000000e+00 6.6763512488770628e-10 7.4550240101152802e-11  0.0000000000000000e+00 6.6809952203638025e-10 7.4306041122069830e-11  0.0000000000000000e+00 6.6797898132593775e-10 7.4618209526440079e-11  0.0000000000000000e+00 6.6847022561330173e-10 7.4371310935319127e-11  0.0000000000000000e+00 6.6831069673196125e-10 7.4677301163640553e-11  0.0000000000000000e+00 6.6886814421469168e-10 7.4437931787503348e-11  0.0000000000000000e+00 6.6869285578449519e-10 7.4756752602484968e-11  0.0000000000000000e+00 6.6921323809250234e-10 7.4492894061375441e-11  0.0000000000000000e+00 6.6907405851962726e-10 7.4826624565002607e-11  0.0000000000000000e+00 6.6956138105081091e-10 7.4545671129890743e-11  0.0000000000000000e+00 6.6942500624073660e-10 7.4884623780700084e-11  0.0000000000000000e+00 6.6991346967621697e-10 7.4596366156033821e-11  0.0000000000000000e+00 6.6976179613996666e-10 7.4923695753801322e-11  0.0000000000000000e+00 6.7027731344996995e-10 7.4646037898731169e-11  0.0000000000000000e+00 6.7012501898390683e-10 7.4980364042503460e-11  0.0000000000000000e+00 6.7063493423427276e-10 7.4692320432982481e-11  0.0000000000000000e+00 6.7049476066400397e-10 7.5039637646326384e-11  0.0000000000000000e+00 6.7099697048973777e-10 7.4736620088640111e-11  0.0000000000000000e+00 6.7084702801169967e-10 7.5080388828808251e-11  0.0000000000000000e+00 6.7137626388862073e-10 7.4780339956833103e-11  0.0000000000000000e+00 6.7121312837065963e-10 7.5122903556545285e-11  0.0000000000000000e+00 6.7177643336324280e-10 7.4823572711601626e-11  0.0000000000000000e+00 6.7160026451561314e-10 7.5169091623364378e-11  0.0000000000000000e+00 6.7216653570442260e-10 7.4862932108524287e-11  0.0000000000000000e+00 6.7198606243077352e-10 7.5209859073237247e-11  0.0000000000000000e+00 6.7256620541444782e-10 7.4900619304030528e-11  0.0000000000000000e+00 6.7237345543328104e-10 7.5267283325299921e-11  0.0000000000000000e+00 6.7294822607099612e-10 7.4934115929054675e-11  0.0000000000000000e+00 6.7279117541971845e-10 7.5308788798637590e-11  0.0000000000000000e+00 6.7335271404221300e-10 7.4966931833079140e-11  0.0000000000000000e+00 6.7316147829757716e-10 7.5334180805788348e-11  0.0000000000000000e+00 6.7375793748524653e-10 7.4997194525996702e-11  0.0000000000000000e+00 6.7355810988074470e-10 7.5366918109358820e-11  0.0000000000000000e+00 6.7415158396727475e-10 7.5024093719605910e-11  0.0000000000000000e+00 6.7395522008891605e-10 7.5391009172633478e-11  0.0000000000000000e+00 6.7454833124099252e-10 7.5048855914629391e-11  0.0000000000000000e+00 6.7435714565820057e-10 7.5424434632316981e-11  0.0000000000000000e+00 6.7494927934672484e-10 7.5071650641876815e-11  0.0000000000000000e+00 6.7477641565198125e-10 7.5465461561746893e-11  0.0000000000000000e+00 6.7537665646569072e-10 7.5093328399718841e-11  0.0000000000000000e+00 6.7518232816424125e-10 7.5477820504882420e-11  0.0000000000000000e+00 6.7579322543907263e-10 7.5112017406839718e-11  0.0000000000000000e+00 6.7560489822457079e-10 7.5497736503812637e-11  0.0000000000000000e+00 6.7619813851246744e-10 7.5127984842771716e-11  0.0000000000000000e+00 6.7600489813336340e-10 7.5521936217642949e-11  0.0000000000000000e+00 6.7661455913723154e-10 7.5142159555984031e-11  0.0000000000000000e+00 6.7641171197356517e-10 7.5539321770034136e-11  0.0000000000000000e+00 6.7703890416422038e-10 7.5154315591590911e-11  0.0000000000000000e+00 6.7683690505800023e-10 7.5554192606112758e-11  0.0000000000000000e+00 6.7746696184173164e-10 7.5164392237790558e-11  0.0000000000000000e+00 6.7727102464182055e-10 7.5574777627946551e-11  0.0000000000000000e+00 6.7792281545144354e-10 7.5172725617049091e-11  0.0000000000000000e+00 6.7768336885223386e-10 7.5588116174873535e-11  0.0000000000000000e+00 6.7835275830030435e-10 7.5178333644391087e-11  0.0000000000000000e+00 6.7813729417153937e-10 7.5595091948346190e-11  0.0000000000000000e+00 6.7877879426549910e-10 7.5181818704016232e-11  0.0000000000000000e+00 6.7855916362867474e-10 7.5602349003387920e-11  0.0000000000000000e+00 6.7924744679134854e-10 7.5183411642442053e-11  0.0000000000000000e+00 6.7898676218914341e-10 7.5610509879072148e-11  0.0000000000000000e+00 6.7968385587765216e-10 7.5182897732918940e-11  0.0000000000000000e+00 6.7946166591751600e-10 7.5625585419725123e-11  0.0000000000000000e+00 6.8013310611758437e-10 7.5180245673828305e-11  0.0000000000000000e+00 6.7990270502726951e-10 7.5618014224618850e-11  0.0000000000000000e+00 6.8057410852651781e-10 7.5175693193704265e-11  0.0000000000000000e+00 6.8037681267259516e-10 7.5619594136594717e-11  0.0000000000000000e+00 6.8103106573790855e-10 7.5168954091586369e-11  0.0000000000000000e+00 6.8080547337218006e-10 7.5614211019504653e-11  0.0000000000000000e+00 6.8147878334148206e-10 7.5160549783633265e-11  0.0000000000000000e+00 6.8126803733193330e-10 7.5616823088203071e-11  0.0000000000000000e+00 6.8192983904444111e-10 7.5150209189554478e-11  0.0000000000000000e+00 6.8170506115662766e-10 7.5607004771196447e-11  0.0000000000000000e+00 6.8243677650106613e-10 7.5136428840845550e-11  0.0000000000000000e+00 6.8217594335135888e-10 7.5597719445090376e-11  0.0000000000000000e+00 6.8296011398259430e-10 7.5119840832372340e-11  0.0000000000000000e+00 6.8268620175766189e-10 7.5579949850285346e-11  0.0000000000000000e+00 6.8342636295288455e-10 7.5103252257551273e-11  0.0000000000000000e+00 6.8319863315730226e-10 7.5575264121146732e-11  0.0000000000000000e+00 6.8391690767857690e-10 7.5083912095168510e-11  0.0000000000000000e+00 6.8365846307760184e-10 7.5562186851098673e-11  0.0000000000000000e+00 6.8441908867193059e-10 7.5062152244776197e-11  0.0000000000000000e+00 6.8415300313989125e-10 7.5540219445251273e-11  0.0000000000000000e+00 6.8489833788214035e-10 7.5039634162183470e-11  0.0000000000000000e+00 6.8463867998777886e-10 7.5516768258192651e-11  0.0000000000000000e+00 6.8538464021514529e-10 7.5015034757531326e-11  0.0000000000000000e+00 6.8513493630990849e-10 7.5491865925035484e-11  0.0000000000000000e+00 6.8587190038290099e-10 7.4988807928899381e-11  0.0000000000000000e+00 6.8564258204122237e-10 7.5481409761348900e-11  0.0000000000000000e+00 6.8636532443168922e-10 7.4960608925919076e-11  0.0000000000000000e+00 6.8612176472218851e-10 7.5468139688947569e-11  0.0000000000000000e+00 6.8689325402877283e-10 7.4928579676667611e-11  0.0000000000000000e+00 6.8661724471047777e-10 7.5433373475348794e-11  0.0000000000000000e+00 6.8743285737719205e-10 7.4894018306671776e-11  0.0000000000000000e+00 6.8713651890761957e-10 7.5401429232666697e-11  0.0000000000000000e+00 6.8796873296929062e-10 7.4857985314163320e-11  0.0000000000000000e+00 6.8768422090676059e-10 7.5372727587276002e-11  0.0000000000000000e+00 6.8848507057816019e-10 7.4821761092784819e-11  0.0000000000000000e+00 6.8821588782677197e-10 7.5350738192894942e-11  0.0000000000000000e+00 6.8902852568346066e-10 7.4781884298554545e-11  0.0000000000000000e+00 6.8872080366496135e-10 7.5305109412625526e-11  0.0000000000000000e+00 6.8954744308133519e-10 7.4742433415403545e-11  0.0000000000000000e+00 6.8925849974154917e-10 7.5282688280701128e-11  0.0000000000000000e+00 6.9007217692255598e-10 7.4700972683963922e-11  0.0000000000000000e+00 6.8978770957611873e-10 7.5231305813580567e-11  0.0000000000000000e+00 6.9063782001400036e-10 7.4654674228347143e-11  0.0000000000000000e+00 6.9035453653630625e-10 7.5183190068431798e-11  0.0000000000000000e+00 6.9117631610228177e-10 7.4609218959551950e-11  0.0000000000000000e+00 6.9089683400357588e-10 7.5146173782475909e-11  0.0000000000000000e+00 6.9175216635660903e-10 7.4558971780263322e-11  0.0000000000000000e+00 6.9144486378162903e-10 7.5097980314241561e-11  0.0000000000000000e+00 6.9228365256550846e-10 7.4511297880931289e-11  0.0000000000000000e+00 6.9199022665327821e-10 7.5053915404262378e-11  0.0000000000000000e+00 6.9286398555739865e-10 7.4457790328248943e-11  0.0000000000000000e+00 6.9254038961371591e-10 7.5005339904210281e-11  0.0000000000000000e+00 6.9340245806371484e-10 7.4406929412250037e-11  0.0000000000000000e+00 6.9311460453883465e-10 7.4957626677618479e-11  0.0000000000000000e+00 6.9396642285791037e-10 7.4352401919960438e-11  0.0000000000000000e+00 6.9365353354410661e-10 7.4915914001395975e-11  0.0000000000000000e+00 6.9455686408957578e-10 7.4293838932756649e-11  0.0000000000000000e+00 6.9421881972654776e-10 7.4850743724672902e-11  0.0000000000000000e+00 6.9511584989699905e-10 7.4237277366408278e-11  0.0000000000000000e+00 6.9477582091642518e-10 7.4801384817866960e-11  0.0000000000000000e+00 6.9566732236784896e-10 7.4180464529508430e-11  0.0000000000000000e+00 6.9536707553070290e-10 7.4760647150863243e-11  0.0000000000000000e+00 6.9624141258922415e-10 7.4120088741805877e-11  0.0000000000000000e+00 6.9592397768403486e-10 7.4698323440059355e-11  0.0000000000000000e+00 6.9683618205191145e-10 7.4056386868764231e-11  0.0000000000000000e+00 6.9649323089330549e-10 7.4642610762807435e-11  0.0000000000000000e+00 6.9740631318023708e-10 7.3994291656332347e-11  0.0000000000000000e+00 6.9709631485958612e-10 7.4586365117864784e-11  0.0000000000000000e+00 6.9801006482375638e-10 7.3927366903491283e-11  0.0000000000000000e+00 6.9769330664111355e-10 7.4517948557795348e-11  0.0000000000000000e+00 6.9860968764586289e-10 7.3859910031489878e-11  0.0000000000000000e+00 6.9827733639698244e-10 7.4471609462132516e-11  0.0000000000000000e+00 6.9918449549293753e-10 7.3794259785081340e-11  0.0000000000000000e+00 6.9886898458857640e-10 7.4404135455009875e-11  0.0000000000000000e+00 6.9977254238595522e-10 7.3726119363358706e-11  0.0000000000000000e+00 6.9943512807878642e-10 7.4333188468792122e-11  0.0000000000000000e+00 7.0036280423460475e-10 7.3656922285242159e-11  0.0000000000000000e+00 7.0004358153357075e-10 7.4275389564804385e-11  0.0000000000000000e+00 7.0101126150051232e-10 7.3579874262397547e-11  0.0000000000000000e+00 7.0066443915142350e-10 7.4197625704151615e-11  0.0000000000000000e+00 7.0163235585793253e-10 7.3505181767220891e-11  0.0000000000000000e+00 7.0125687147005477e-10 7.4122283513704756e-11  0.0000000000000000e+00 7.0224002454337981e-10 7.3431337660852959e-11  0.0000000000000000e+00 7.0189655995749492e-10 7.4054680629019731e-11  0.0000000000000000e+00 7.0284291901575289e-10 7.3357352502591427e-11  0.0000000000000000e+00 7.0250008043673042e-10 7.3994386302340078e-11  0.0000000000000000e+00 7.0345892041878140e-10 7.3280986577602765e-11  0.0000000000000000e+00 7.0311969222120019e-10 7.3923738105612005e-11  0.0000000000000000e+00 7.0412045496947156e-10 7.3198166076130826e-11  0.0000000000000000e+00 7.0374978755323332e-10 7.3853612050039063e-11  0.0000000000000000e+00 7.0473873271747744e-10 7.3120069972954080e-11  0.0000000000000000e+00 7.0438631575217374e-10 7.3766785064962416e-11  0.0000000000000000e+00 7.0541116470650201e-10 7.3034357416941622e-11  0.0000000000000000e+00 7.0498925969093417e-10 7.3684981440901778e-11  0.0000000000000000e+00 7.0603097756225057e-10 7.2954870244185563e-11  0.0000000000000000e+00 7.0566990873679120e-10 7.3620855648428610e-11  0.0000000000000000e+00 7.0667123613681584e-10 7.2872075416691373e-11  0.0000000000000000e+00 7.0631983405467255e-10 7.3525125718788623e-11  0.0000000000000000e+00 7.0729708676712638e-10 7.2790691739150326e-11  0.0000000000000000e+00 7.0698873069137346e-10 7.3454042546715587e-11  0.0000000000000000e+00 7.0794722612259883e-10 7.2705509848106498e-11  0.0000000000000000e+00 7.0759617515054701e-10 7.3371354225560192e-11  0.0000000000000000e+00 7.0864053592379184e-10 7.2614045645788057e-11  0.0000000000000000e+00 7.0826158846281299e-10 7.3287477066868270e-11  0.0000000000000000e+00 7.0928681358347731e-10 7.2528401838756923e-11  0.0000000000000000e+00 7.0890584548835811e-10 7.3220964238850374e-11  0.0000000000000000e+00 7.0998193189107568e-10 7.2435807994625905e-11  0.0000000000000000e+00 7.0957126524955906e-10 7.3146701591160757e-11  0.0000000000000000e+00 7.1063152353084733e-10 7.2348816143923018e-11  0.0000000000000000e+00 7.1024479844468507e-10 7.3046174655723401e-11  0.0000000000000000e+00 7.1130012205070609e-10 7.2258870864208614e-11  0.0000000000000000e+00 7.1087957175039728e-10 7.2958130121078477e-11  0.0000000000000000e+00 7.1196718596793806e-10 7.2168883184151888e-11  0.0000000000000000e+00 7.1158934829014201e-10 7.2881128029486187e-11  0.0000000000000000e+00 7.1262373274016175e-10 7.2079901156264873e-11  0.0000000000000000e+00 7.1226016964826689e-10 7.2778717595506861e-11  0.0000000000000000e+00 7.1328963285184530e-10 7.1989379748226997e-11  0.0000000000000000e+00 7.1290158587176742e-10 7.2700290108931380e-11  0.0000000000000000e+00 7.1396753082310326e-10 7.1897055449313812e-11  0.0000000000000000e+00 7.1358442160604599e-10 7.2622219933922350e-11  0.0000000000000000e+00 7.1464161061719033e-10 7.1805028557554741e-11  0.0000000000000000e+00 7.1427568421057517e-10 7.2532167632909915e-11  0.0000000000000000e+00 7.1535138497169841e-10 7.1707889569548548e-11  0.0000000000000000e+00 7.1494461262979646e-10 7.2443215570056481e-11  0.0000000000000000e+00 7.1607688431693509e-10 7.1608426129745665e-11  0.0000000000000000e+00 7.1566501439096790e-10 7.2346737436908112e-11  0.0000000000000000e+00 7.1680165306039296e-10 7.1508926340669018e-11  0.0000000000000000e+00 7.1640821127567101e-10 7.2236397911783064e-11  0.0000000000000000e+00 7.1758923142026692e-10 7.1400670540764355e-11  0.0000000000000000e+00 7.1717600184598440e-10 7.2130670278292160e-11  0.0000000000000000e+00 7.1831213089935538e-10 7.1301226000952278e-11  0.0000000000000000e+00 7.1790956140399750e-10 7.2030199314651609e-11  0.0000000000000000e+00 7.1905724882987977e-10 7.1198658066746210e-11  0.0000000000000000e+00 7.1861146642004554e-10 7.1940834178848018e-11  0.0000000000000000e+00 7.1976564365748093e-10 7.1101073322624244e-11  0.0000000000000000e+00 7.1933714493649044e-10 7.1837188866530008e-11  0.0000000000000000e+00 7.2048150115534399e-10 7.1002493321925187e-11  0.0000000000000000e+00 7.2004823089077993e-10 7.1744890385567283e-11  0.0000000000000000e+00 7.2118682064964405e-10 7.0905528612160396e-11  0.0000000000000000e+00 7.2077651526759298e-10 7.1679737210084632e-11  0.0000000000000000e+00 7.2191058995291138e-10 7.0806002129543390e-11  0.0000000000000000e+00 7.2149489282757654e-10 7.1564338949267411e-11  0.0000000000000000e+00 7.2262235843765373e-10 7.0708197732936442e-11  0.0000000000000000e+00 7.2221391732402421e-10 7.1453996683253903e-11  0.0000000000000000e+00 7.2335408304506832e-10 7.0607812285092832e-11  0.0000000000000000e+00 7.2295894916733728e-10 7.1354698483193796e-11  0.0000000000000000e+00 7.2418541988248806e-10 7.0493939232428989e-11  0.0000000000000000e+00 7.2375318865080943e-10 7.1250454182773107e-11  0.0000000000000000e+00 7.2490701932976677e-10 7.0395333794173106e-11  0.0000000000000000e+00 7.2451165642570394e-10 7.1152719785198554e-11  0.0000000000000000e+00 7.2565788020450202e-10 7.0292916139382182e-11  0.0000000000000000e+00 7.2523595392845115e-10 7.1057286919166336e-11  0.0000000000000000e+00 7.2645352238242572e-10 7.0184642336178455e-11  0.0000000000000000e+00 7.2601544659336794e-10 7.0955409223438983e-11  0.0000000000000000e+00 7.2720188214782826e-10 7.0083139299736961e-11  0.0000000000000000e+00 7.2675075003228903e-10 7.0868139485591327e-11  0.0000000000000000e+00 7.2793621711240666e-10 6.9983808387948691e-11  0.0000000000000000e+00 7.2750382660096868e-10 7.0768143485232845e-11  0.0000000000000000e+00 7.2869124565663330e-10 6.9881954566407594e-11  0.0000000000000000e+00 7.2823564656671120e-10 7.0663660641783534e-11  0.0000000000000000e+00 7.2948771581649487e-10 6.9774916458325904e-11  0.0000000000000000e+00 7.2902709854494341e-10 7.0567770227929140e-11  0.0000000000000000e+00 7.3027614357787674e-10 6.9669469143224967e-11  0.0000000000000000e+00 7.2985615615698583e-10 7.0473601086745379e-11  0.0000000000000000e+00 7.3109845149716487e-10 6.9559877977554400e-11  0.0000000000000000e+00 7.3063648251839036e-10 7.0359350215518887e-11  0.0000000000000000e+00 7.3188860859554974e-10 6.9455081841747776e-11  0.0000000000000000e+00 7.3141944705965362e-10 7.0252559467708611e-11  0.0000000000000000e+00 7.3267936284395804e-10 6.9350691284599855e-11  0.0000000000000000e+00 7.3223596212021047e-10 7.0141744581507132e-11  0.0000000000000000e+00 7.3345106758644268e-10 6.9249327459382365e-11  0.0000000000000000e+00 7.3300888225072837e-10 7.0055378292019606e-11  0.0000000000000000e+00 7.3422217315570926e-10 6.9148557089387892e-11  0.0000000000000000e+00 7.3375143534083218e-10 6.9974896288646097e-11  0.0000000000000000e+00 7.3500112203922672e-10 6.9047327235529286e-11  0.0000000000000000e+00 7.3457478908468693e-10 6.9876715271286153e-11  0.0000000000000000e+00 7.3577814481369569e-10 6.8946926576535026e-11  0.0000000000000000e+00 7.3535529607585133e-10 6.9782597748045765e-11  0.0000000000000000e+00 7.3654943068166326e-10 6.8847811049213327e-11  0.0000000000000000e+00 7.3610708628413906e-10 6.9667468889295662e-11  0.0000000000000000e+00 7.3737638464297832e-10 6.8742155775292733e-11  0.0000000000000000e+00 7.3691170881378708e-10 6.9552516709309107e-11  0.0000000000000000e+00 7.3817767154178462e-10 6.8640570317270644e-11  0.0000000000000000e+00 7.3773088895503259e-10 6.9474428024842435e-11  0.0000000000000000e+00 7.3895856144131041e-10 6.8542290026916929e-11  0.0000000000000000e+00 7.3856258904190941e-10 6.9384218089504951e-11  0.0000000000000000e+00 7.3980373028330506e-10 6.8436595110876288e-11  0.0000000000