<?xml version="1.0"?>
<VTKFile type="UnstructuredGrid"  version="0.1"  >
<UnstructuredGrid>
<Piece  NumberOfPoints="10013" NumberOfCells="19682">
<Points>
<DataArray  type="Float64"  NumberOfComponents="3"  format="ascii">3.592288698159329e-23 9.810646008487521e-07 1.049999999999998e-07  3.603353180326792e-23 9.820612008040807e-07 1.049999999999998e-07  3.600110987886184e-23 9.815685341954413e-07 1.047993641247082e-07  3.548030769489473e-23 9.77078201027437e-07 1.049999999999998e-07  3.559095251656937e-23 9.780748009827658e-07 1.049999999999998e-07  3.555374679945624e-23 9.775307370813492e-07 1.047910554060368e-07  3.536966287322008e-23 9.76081601072108e-07 1.049999999999998e-07  3.544469852931925e-23 9.765759612888196e-07 1.04818499111016e-07  3.525901805154544e-23 9.750850011167793e-07 1.049999999999998e-07  3.533867516982792e-23 9.756161250423487e-07 1.048136363891404e-07  3.51483732298708e-23 9.740884011614505e-07 1.049999999999998e-07  3.522402349789267e-23 9.745876951560852e-07 1.04817896956887e-07  3.503772840819616e-23 9.730918012061219e-07 1.049999999999998e-07  3.512012196568898e-23 9.736529527463384e-07 1.048190163505716e-07  3.492708358652152e-23 9.720952012507929e-07 1.049999999999998e-07  3.500302526439212e-23 9.725700948179852e-07 1.047908717428722e-07  3.45951491214976e-23 9.691054013848068e-07 1.049999999999998e-07  3.470579394317224e-23 9.701020013401356e-07 1.049999999999998e-07  3.466681475120761e-23 9.695425370328952e-07 1.047916290415738e-07  3.448450429982296e-23 9.68108801429478e-07 1.049999999999998e-07  3.457246893502023e-23 9.687045173362714e-07 1.048034009102008e-07  3.437385947814832e-23 9.671122014741493e-07 1.049999999999998e-07  3.444929484652201e-23 9.675872904650248e-07 1.047956275970789e-07  3.404192501312439e-23 9.641224016081629e-07 1.049999999999998e-07  3.415256983479904e-23 9.651190015634917e-07 1.049999999999998e-07  3.411990835931877e-23 9.646229792911238e-07 1.047981661452367e-07  3.393128019144975e-23 9.631258016528342e-07 1.049999999999998e-07  3.400909310181952e-23 9.636435519419924e-07 1.048168739008664e-07  3.382063536977511e-23 9.621292016975054e-07 1.049999999999998e-07  3.390284342683843e-23 9.626730665233525e-07 1.048034004755326e-07  3.472504555695692e-23 9.699868555469134e-07 1.047114510854438e-07  3.475195920906633e-23 9.703105513156404e-07 1.047927302269486e-07  3.542163426187476e-23 9.762733205283146e-07 1.047236028030481e-07  3.5199749788386e-23 9.742724702881327e-07 1.047213102271127e-07  3.409069584163345e-23 9.642774062792401e-07 1.047157161008772e-07  3.470436889957664e-23 9.696857411145083e-07 1.045965754259849e-07  3.560419001472548e-23 9.779311217809755e-07 1.047370880146833e-07  3.476111528544695e-23 9.702173459391149e-07 1.046170542460713e-07  3.475975407623999e-23 9.700873141718691e-07 1.044992831613798e-07  3.46249752387102e-23 9.691100502261235e-07 1.047359990605874e-07  3.563441649565979e-23 9.782548050403879e-07 1.047885153375507e-07  3.460910635931423e-23 9.688464613329619e-07 1.046153443260948e-07  3.538410665583063e-23 9.759288556841955e-07 1.047171565841219e-07  3.516191930353986e-23 9.739533996817245e-07 1.047429863356171e-07  3.405426766927734e-23 9.63966129099129e-07 1.047325547276636e-07  3.559410030508016e-23 9.776701542887668e-07 1.045670005476725e-07  3.458497207104551e-23 9.68597616359204e-07 1.045838816956446e-07  3.546560965208359e-23 9.765661381825099e-07 1.046203253553274e-07  3.52456643603523e-23 9.745771824403258e-07 1.046124606809093e-07  3.413066861999425e-23 9.645163745827855e-07 1.045946416249613e-07  3.563885691566024e-23 9.781295611639474e-07 1.046232757133914e-07  3.562989378734708e-23 9.779365449701634e-07 1.045109922022698e-07  3.464632242201008e-23 9.690551484048681e-07 1.044888189058226e-07  3.542183580030863e-23 9.761047165580378e-07 1.045531835359399e-07  3.519780013553665e-23 9.74104913423665e-07 1.045713142743367e-07  3.40900545149644e-23 9.641200170365576e-07 1.045641034152902e-07  3.596291124235434e-23 9.811810918506783e-07 1.047559845102276e-07  3.551970347465684e-23 9.77171742687695e-07 1.047386960221447e-07  3.531255945496604e-23 9.752771564553909e-07 1.047098972496236e-07  3.509959228161156e-23 9.733422435130253e-07 1.046932220723808e-07  3.496819881303688e-23 9.722000242912977e-07 1.047344900028768e-07  3.453761306214084e-23 9.683001851249175e-07 1.047130224910696e-07  3.441520437934899e-23 9.672234227436988e-07 1.047388195062675e-07  3.398026583574447e-23 9.633056903992459e-07 1.047386652876273e-07  3.387881580186633e-23 9.623559870022633e-07 1.047027425601853e-07  3.555956174083125e-23 9.773529229615946e-07 1.045608649506629e-07  3.605121382821724e-23 9.819530769765495e-07 1.047326106505228e-07  3.474142802413121e-23 9.698831598709384e-07 1.044601952633456e-07  3.548915054386426e-23 9.768688601875683e-07 1.04711009857483e-07  3.527065681093335e-23 9.748996655052606e-07 1.047098317635962e-07  3.505867785365082e-23 9.729846352854989e-07 1.047041382498906e-07  3.449978680065472e-23 9.679494892722031e-07 1.047030353126225e-07  3.416095332983821e-23 9.649258316315163e-07 1.047313182577555e-07  3.394795878200644e-23 9.629825171638004e-07 1.047064881225339e-07  3.607955305626421e-23 9.822543978171034e-07 1.047786744173321e-07  3.514653363247178e-23 9.736861239297744e-07 1.046142923886451e-07  3.420129447236713e-23 9.653529810568777e-07 1.047951069741951e-07  3.41892216930401e-23 9.651524328431194e-07 1.047033006893938e-07  3.403532826015499e-23 9.63651236179281e-07 1.045882528395477e-07  3.383908301692458e-23 9.619867605417749e-07 1.04691397210613e-07  3.595455120155024e-23 9.810025082541916e-07 1.046527014670412e-07  3.592408821904435e-23 9.808805735833384e-07 1.048051529495123e-07  3.495899236431874e-23 9.72011884853055e-07 1.04629274882667e-07  3.49337920328919e-23 9.719540917402183e-07 1.047984661762773e-07  3.44067440505752e-23 9.670348415314978e-07 1.046264421610925e-07  3.437659456180231e-23 9.669195057849943e-07 1.047826688673951e-07  3.598575768627642e-23 9.811613259684814e-07 1.045304361553623e-07  3.608483926387671e-23 9.821336546392934e-07 1.046103173142544e-07  3.607822362680848e-23 9.819625998648406e-07 1.044988509010722e-07  3.418963950397357e-23 9.649877321794167e-07 1.045348367193625e-07  3.531263687462763e-23 9.750832534800753e-07 1.045152969399898e-07  3.51780597285526e-23 9.739035945358915e-07 1.045478011656382e-07  3.443927325695877e-23 9.672118856662073e-07 1.045104892523068e-07  3.498770988929208e-23 9.721572702060604e-07 1.045159957661346e-07  3.388220596351564e-23 9.622044365368568e-07 1.045206562332976e-07  3.448469248935032e-23 9.676985150786376e-07 1.045880185885888e-07  3.453787919068134e-23 9.68124617086897e-07 1.045350573802575e-07  3.604336288849505e-23 9.817139159975344e-07 1.045641646499225e-07  3.504328886912709e-23 9.727074022623536e-07 1.045655168766785e-07  3.415912576246099e-23 9.647576676855939e-07 1.045796155753512e-07  3.392916066332631e-23 9.62688671844056e-07 1.045819612033557e-07  3.47872399881693e-23 9.704209449018762e-07 1.045853428059414e-07  3.60078538530355e-23 9.814094743827864e-07 1.045795599929022e-07  3.536391479637724e-23 9.756329721265103e-07 1.046031451278571e-07  3.500817775403954e-23 9.724025063575533e-07 1.04576873781528e-07  3.445812559480781e-23 9.674464317210355e-07 1.04575228543711e-07  3.552999273140349e-23 9.770527973057568e-07 1.045270732545062e-07  3.407108162627688e-23 9.639117985810703e-07 1.045267775486495e-07  3.540424697046129e-23 9.75880404126165e-07 1.044872971991599e-07  3.496890467418787e-23 9.719325569936555e-07 1.044606648732016e-07  3.398337636158879e-23 9.63159382383657e-07 1.045643401459716e-07  3.467722078919026e-23 9.693971362994143e-07 1.045524990505307e-07  3.401125558308839e-23 9.633710880469863e-07 1.045249321061869e-07  3.457077089372285e-23 9.683562860635808e-07 1.044704642338185e-07  3.535010898867621e-23 9.753830101869605e-07 1.044775348491431e-07  3.550599862561734e-23 9.767871136163726e-07 1.044775092568772e-07  3.528452419012669e-23 9.748026900779776e-07 1.044879500887778e-07  3.478925483043967e-23 9.70288596290451e-07 1.044348461087201e-07  3.596606017872648e-23 9.80952314364502e-07 1.04498843926707e-07  3.442024175795391e-23 9.669817363600405e-07 1.04451760449793e-07  3.462519935779412e-23 9.687886036964364e-07 1.044125338456547e-07  3.514067794913499e-23 9.734762390189864e-07 1.044571507844443e-07  3.391205579802825e-23 9.624433018723308e-07 1.044906581615956e-07  3.566550536221939e-23 9.781844833562408e-07 1.044381700376973e-07  3.545482657340379e-23 9.763413159936824e-07 1.044926285047485e-07  3.523550551198601e-23 9.743208069093485e-07 1.044475879213658e-07  3.412709647484308e-23 9.643232565420508e-07 1.044336986073701e-07  3.593437170642465e-23 9.807880148102179e-07 1.046199687565237e-07  3.438715877103752e-23 9.668338971474774e-07 1.046019062923278e-07  3.510558880628656e-23 9.731829684526702e-07 1.04479935119442e-07  3.493375744286201e-23 9.717925294336267e-07 1.046372154289773e-07  3.422421272598176e-23 9.653732138022548e-07 1.046089104426945e-07  3.507776278238997e-23 9.729331620752401e-07 1.044807632837156e-07  3.611103143384953e-23 9.821866796437376e-07 1.044274242248393e-07  3.422019297605939e-23 9.652068679207165e-07 1.044787712496611e-07  3.45241348828532e-23 9.678876236172214e-07 1.044218616298084e-07  3.397250271135501e-23 9.629522508708527e-07 1.044551497674493e-07  3.386937210736081e-23 9.619462885632335e-07 1.043781053592677e-07  3.56656836818282e-23 9.783372660634518e-07 1.045893465846606e-07  3.407576437607725e-23 9.63784167791323e-07 1.043569682983901e-07  3.500002227563912e-23 9.720691681550337e-07 1.043169935979786e-07  3.517823767159694e-23 9.737535152847536e-07 1.043961191460439e-07  3.456467498907108e-23 9.681485196569056e-07 1.043176048549798e-07  3.559805543419781e-23 9.774956114738601e-07 1.043568330967248e-07  3.538868955566219e-23 9.756408728963831e-07 1.04387894704362e-07  3.60786917602935e-23 9.818066762968541e-07 1.043387107615082e-07  3.472286662311435e-23 9.696550308750345
[...]
<PointData  Tensors="f_45"> 
<DataArray  type="Float64"  Name="f_45"  NumberOfComponents="9" format="ascii">0.0000000000000000e+00 -1.4097098844759250e-18 -1.3188985504323275e-18 -1.4097098844759250e-18 -3.1178977873651068e-03 1.0993764743286619e-04 -1.3188985504323275e-18 1.0993764743286619e-04 1.7018615216035601e-03  0.0000000000000000e+00 -1.1235519046165602e-18 -1.0497012015137656e-18 -1.1235519046165602e-18 -2.6127941198653385e-03 -2.7169759854211453e-05 -1.0497012015137656e-18 -2.7169759854211453e-05 1.2280786042571182e-03  0.0000000000000000e+00 -1.2055985237721053e-18 -1.1117678331246304e-18 -1.2055985237721053e-18 -2.4822410875672018e-03 1.9660145341005546e-04 -1.1117678331246304e-18 1.9660145341005546e-04 1.1851405406443035e-03  0.0000000000000000e+00 6.1588824667619523e-19 -1.2503689355311062e-18 6.1588824667619523e-19 2.6503253299505064e-02 3.2273665654696373e-08 -1.2503689355311062e-18 3.2273665654696373e-08 7.1163118492972846e-03  0.0000000000000000e+00 5.0450100941378435e-19 -1.3986544959558148e-18 5.0450100941378435e-19 2.7440334861674891e-02 9.9457362409581965e-05 -1.3986544959558148e-18 9.9457362409581965e-05 7.0427815623930121e-03  0.0000000000000000e+00 5.4700082693865851e-19 -1.3081830518240366e-18 5.4700082693865851e-19 2.6397534509230582e-02 5.8795633202925291e-06 -1.3081830518240366e-18 5.8795633202925291e-06 7.0342463178094212e-03  0.0000000000000000e+00 7.2749186290454221e-19 -1.1423120368929318e-18 7.2749186290454221e-19 2.6529256861417608e-02 6.7831661506676245e-06 -1.1423120368929318e-18 6.7831661506676245e-06 7.1677020564191859e-03  0.0000000000000000e+00 6.8029296455768978e-19 -1.1828598425952353e-18 6.8029296455768978e-19 2.6642662725654871e-02 2.7446170102499219e-05 -1.1828598425952353e-18 2.7446170102499219e-05 6.9758067666699178e-03  0.0000000000000000e+00 8.1460307011535111e-19 -1.0534639321570060e-18 8.1460307011535111e-19 2.6454570759055451e-02 1.5427301759162660e-06 -1.0534639321570060e-18 1.5427301759162660e-06 7.2006181226433449e-03  0.0000000000000000e+00 7.7332034092634095e-19 -1.0869947603942454e-18 7.7332034092634095e-19 2.6522810997249322e-02 3.7193996178324307e-05 -1.0869947603942454e-18 3.7193996178324307e-05 7.0640345835032078e-03  0.0000000000000000e+00 8.8732529423312278e-19 -9.8028206142109105e-19 8.8732529423312278e-19 2.6406722624285738e-02 -3.0187612487568864e-06 -9.8028206142109105e-19 -3.0187612487568864e-06 7.2310630172070928e-03  0.0000000000000000e+00 8.5390874279077564e-19 -1.0064329512418999e-18 8.5390874279077564e-19 2.6462584563705621e-02 2.9173253420897504e-05 -1.0064329512418999e-18 2.9173253420897504e-05 7.1086985832473264e-03  0.0000000000000000e+00 9.4958717864482269e-19 -9.1510746424673553e-19 9.4958717864482269e-19 2.6344466025137001e-02 2.4203311632086297e-06 -9.1510746424673553e-19 2.4203311632086297e-06 7.2517270327367468e-03  0.0000000000000000e+00 9.1819831710607891e-19 -9.4101809317711463e-19 9.1819831710607891e-19 2.6413930105271974e-02 3.6859942585527440e-05 -9.4101809317711463e-19 3.6859942585527440e-05 7.1524551101030849e-03  0.0000000000000000e+00 1.0056734818557395e-18 -8.5873693337603103e-19 1.0056734818557395e-18 2.6309298665427212e-02 -8.6884935933146912e-06 -8.5873693337603103e-19 -8.6884935933146912e-06 7.2595565525996929e-03  0.0000000000000000e+00 9.7502464825061970e-19 -8.8375471029440793e-19 9.7502464825061970e-19 2.6273673788616531e-02 2.5075855571296843e-05 -8.8375471029440793e-19 2.5075855571296843e-05 7.2612700285596540e-03  0.0000000000000000e+00 1.1409092384708046e-18 -7.1841561966350441e-19 1.1409092384708046e-18 2.6146787302405439e-02 -1.4067444376784141e-06 -7.1841561966350441e-19 -1.4067444376784141e-06 7.3450181617357004e-03  0.0000000000000000e+00 1.1002467149333390e-18 -7.5819534002496804e-19 1.1002467149333390e-18 2.6192754431362111e-02 1.6824731475653977e-05 -7.5819534002496804e-19 1.6824731475653977e-05 7.3196108163872814e-03  0.0000000000000000e+00 1.1186572952482961e-18 -7.3917210564538456e-19 1.1186572952482961e-18 2.6095849634022200e-02 -9.3781927283051937e-06 -7.3917210564538456e-19 -9.3781927283051937e-06 7.3530731708518421e-03  0.0000000000000000e+00 1.1795740900055634e-18 -6.7751873095041955e-19 1.1795740900055634e-18 2.6095652593434916e-02 2.8187068176704048e-06 -6.7751873095041955e-19 2.8187068176704048e-06 7.3643949659981320e-03  0.0000000000000000e+00 1.1530705886023380e-18 -6.9858762014292058e-19 1.1530705886023380e-18 2.6079706434172359e-02 4.1300096298450186e-05 -6.9858762014292058e-19 4.1300096298450186e-05 7.3594026341148883e-03  0.0000000000000000e+00 1.2160950871165779e-18 -6.4125827726940249e-19 1.2160950871165779e-18 2.6052825708039126e-02 -3.1100604647028157e-06 -6.4125827726940249e-19 -3.1100604647028157e-06 7.4000578500052873e-03  0.0000000000000000e+00 1.1978327502102261e-18 -6.5628630233817083e-19 1.1978327502102261e-18 2.6051763185273562e-02 8.0548036996094101e-06 -6.5628630233817083e-19 8.0548036996094101e-06 7.3651859187575698e-03  0.0000000000000000e+00 1.3195559820616458e-18 -5.3352079466534458e-19 1.3195559820616458e-18 2.5940071084478569e-02 3.6133916962991309e-06 -5.3352079466534458e-19 3.6133916962991309e-06 7.4492192235376051e-03  0.0000000000000000e+00 1.2873024017835245e-18 -5.6657799875004998e-19 1.2873024017835245e-18 2.5972652506169962e-02 3.3291764591792920e-06 -5.6657799875004998e-19 3.3291764591792920e-06 7.4305461708737671e-03  0.0000000000000000e+00 1.3031150433004692e-18 -5.4872063688363820e-19 1.3031150433004692e-18 2.5951603423013787e-02 2.0631425870473887e-06 -5.4872063688363820e-19 2.0631425870473887e-06 7.4122287790751584e-03  0.0000000000000000e+00 1.3525247434427520e-18 -4.9977498219320919e-19 1.3525247434427520e-18 2.5907421329633990e-02 2.5533086000986993e-06 -4.9977498219320919e-19 2.5533086000986993e-06 7.4657507041733491e-03  0.0000000000000000e+00 1.3363379538408989e-18 -5.1378447813878949e-19 1.3363379538408989e-18 2.5943293195671391e-02 1.0637633108268197e-05 -5.1378447813878949e-19 1.0637633108268197e-05 7.4068248515576250e-03  0.0000000000000000e+00 1.3841479543147705e-18 -4.6722957331436812e-19 1.3841479543147705e-18 2.5879724381064714e-02 3.0054966143814004e-06 -4.6722957331436812e-19 3.0054966143814004e-06 7.4777391863711492e-03  0.0000000000000000e+00 1.3671209567291969e-18 -4.8140688749918876e-19 1.3671209567291969e-18 2.5902068027594129e-02 1.4970938518612907e-05 -4.8140688749918876e-19 1.4970938518612907e-05 7.4279910912439136e-03  0.0000000000000000e+00 1.0890448327783006e-18 -7.6141561399533830e-19 1.0890448327783006e-18 2.5932870310174664e-02 7.3622510265906034e-05 -7.6141561399533830e-19 7.3622510265906034e-05 7.5493066245695050e-03  0.0000000000000000e+00 1.0819353839902021e-18 -7.9175265975340913e-19 1.0819353839902021e-18 2.6011541756382029e-02 -1.1964428734415947e-04 -7.9175265975340913e-19 -1.1964428734415947e-04 7.5025327713765279e-03  0.0000000000000000e+00 6.8348102102786983e-19 -1.2030661849804825e-18 6.8348102102786983e-19 2.5982582970732651e-02 -2.0330572726830147e-04 -1.2030661849804825e-18 -2.0330572726830147e-04 7.5958187507124209e-03  0.0000000000000000e+00 8.5780444602656268e-19 -1.0207035000074583e-18 8.5780444602656268e-19 2.6053631868032952e-02 -1.3680092909856473e-04 -1.0207035000074583e-18 -1.3680092909856473e-04 7.5129570168562523e-03  0.0000000000000000e+00 1.3061465338960550e-18 -5.5274678015523641e-19 1.3061465338960550e-18 2.5760295717317763e-02 -6.1784693450717587e-05 -5.5274678015523641e-19 -6.1784693450717587e-05 7.6029798417064538e-03  0.0000000000000000e+00 1.1048085182785134e-18 -7.4450304072948109e-19 1.1048085182785134e-18 2.5938615668610884e-02 2.2855446020957469e-05 -7.4450304072948109e-19 2.2855446020957469e-05 7.4213306155936796e-03  0.0000000000000000e+00 4.3448157180321493e-19 -1.4073352484270602e-18 4.3448157180321493e-19 2.5649099425015965e-02 2.6105964718833722e-04 -1.4073352484270602e-18 2.6105964718833722e-04 8.0522420504603506e-03  0.0000000000000000e+00 1.0750118399328966e-18 -7.7437176054949227e-19 1.0750118399328966e-18 2.5847441100200069e-02 8.6775529669062647e-06 -7.7437176054949227e-19 8.6775529669062647e-06 7.4854471817279470e-03  0.0000000000000000e+00 1.0750010198145612e-18 -7.7572984402636109e-19 1.0750010198145612e-18 2.5778513881906061e-02 -9.7034251339853667e-06 -7.7572984402636109e-19 -9.7034251339853667e-06 7.5418825828492374e-03  0.0000000000000000e+00 1.1270984249705585e-18 -7.3183726692954305e-19 1.1270984249705585e-18 2.5899208243941742e-02 -2.3124283428857819e-06 -7.3183726692954305e-19 -2.3124283428857819e-06 7.5837752567593586e-03  0.0000000000000000e+00 3.9233981400918094e-19 -1.5654281518949918e-18 3.9233981400918094e-19 2.6075513511451851e-02 -6.9217637326281819e-04 -1.5654281518949918e-18 -6.9217637326281819e-04 7.8081460689151064e-03  0.0000000000000000e+00 1.1343934885728475e-18 -7.0805751756458332e-19 1.1343934885728475e-18 2.5856257109020009e-02 6.0484984113688116e-05 -7.0805751756458332e-19 6.0484984113688116e-05 7.4553595179614133e-03  0.0000000000000000e+00 7.0724893495415304e-19 -1.1397268008721848e-18 7.0724893495415304e-19 2.5929367849928213e-02 1.5411341347117008e-04 -1.1397268008721848e-18 1.5411341347117008e-04 7.6510159195314030e-03  0.0000000000000000e+00 8.7207541180650345e-19 -9.7791768314479268e-19 8.7207541180650345e-19 2.5992429314424272e-02 1.2260662935761400e-04 -9.7791768314479268e-19 1.2260662935761400e-04 7.5792967965304546e-03  0.0000000000000000e+00 1.3131347153246024e-18 -5.2989625966331870e-19 1.3131347153246024e-18 2.5735900956317885e-02 6.9485049426580290e-05 -5.2989625966331870e-19 6.9485049426580290e-05 7.6041635912900262e-03  0.0000000000000000e+00 4.8188137328356372e-19 -1.3543355739535274e-18 4.8188137328356372e-19 2.5743732191854836e-02 8.1143933779964625e-05 -1.3543355739535274e-18 8.1143933779964625e-05 7.4968995130971147e-03  0.0000000000000000e+00 1.1447148219803171e-18 -7.0457831191445931e-19 1.1447148219803171e-18 2.5883426765314820e-02 1.7160820026859755e-05 -7.0457831191445931e-19 1.7160820026859755e-05 7.4647983495684340e-03  0.0000000000000000e+00 6.5091865401536576e-19 -1.2024665040156053e-18 6.5091865401536576e-19 2.6063198974062111e-02 -1.2318975335513899e-05 -1.2024665040156053e-18 -1.2318975335513899e-05 7.2997819035936894e-03  0.0000000000000000e+00 8.3525931635259032e-19 -1.0194381148795852e-18 8.3525931635259032e-19 2.6091439626055184e-02 3.0788205368202028e-06 -1.0194381148795852e-18 3.0788205368202028e-06 7.3259766557479521e-03  0.0000000000000000e+00 1.2956590074224768e-18 -5.5140815002067081e-19 1.2956590074224768e-18 2.5762967469268167e-02 3.1485523011267749e-06 -5.5140815002067081e-19 3.1485523011267749e-06 7.5171334832939002e-03  0.0000000000000000e+00 3.6268782855524610e-19 -1.4687339563206252e-18 3.6268782855524610e-19 2.5236820063246967e-02 5.5193711613393569e-05 -1.4687339563206252e-18 5.5193711613393569e-05 7.8655292316803238e-03  0.0000000000000000e+00 3.8763302973294875e-19 -1.4469491772443741e-18 3.8763302973294875e-19 2.5104959093498639e-02 3.7164851846799505e-05 -1.4469491772443741e-18 3.7164851846799505e-05 8.0182655850905352e-03  0.0000000000000000e+00 1.1213383331095805e-18 -7.2776132180330831e-19 1.1213383331095805e-18 2.5766061201772082e-02 1.3217469096929895e-05 -7.2776132180330831e-19 1.3217469096929895e-05 7.5707918037675936e-03  0.0000000000000000e+00 6.8139515862796284e-19 -1.1641614044523327e-18 6.8139515862796284e-19 2.5701500053537097e-02 -2.0444067458012737e-05 -1.1641614044523327e-18 -2.0444067458012737e-05 7.5042032106682963e-03  0.0000000000000000e+00 8.5409584112234352e-19 -9.9355320024758710e-19 8.5409584112234352e-19 2.5832566196934432e-02 1.1926711722280738e-05 -9.9355320024758710e-19 1.1926711722280738e-05 7.4755733634118277e-03  0.0000000000000000e+00 1.3033845929985777e-18 -5.3980792160421846e-19 1.3033845929985777e-18 2.5647098508911826e-02 1.2344350167455301e-05 -5.3980792160421846e-19 1.2344350167455301e-05 7.5815946791701191e-03  0.0000000000000000e+00 -1.2390006155120271e-18 -1.1150215927786663e-18 -1.2390006155120271e-18 -7.9529274602812433e-04 3.5006044254455804e-04 -1.1150215927786663e-18 3.5006044254455804e-04 -7.3799389121300091e-04  0.0000000000000000e+00 5.7141051201889377e-19 -1.3248933939658418e-18 5.7141051201889377e-19 2.5902772035933899e-02 -2.3461700460205320e-04 -1.3248933939658418e-18 -2.3461700460205320e-04 7.7887682123572530e-03  0.0000000000000000e+00 7.7785166039698292e-19 -1.1007167026908846e-18 7.7785166039698292e-19 2.6023724250618753e-02 -1.4139431375374736e-04 -1.1007167026908846e-18 -1.4139431375374736e-04 7.5347662418457188e-03  0.0000000000000000e+00 9.2059156819372657e-19 -9.5330737069383079e-19 9.2059156819372657e-19 2.6044702664367533e-02 -1.2412841488532931e-04 -9.5330737069383079e-19 -1.2412841488532931e-04 7.4642027574789568e-03  0.0000000000000000e+00 9.8545933352783604e-19 -8.8948015203511356e-19 9.8545933352783604e-19 2.5997982427239968e-02 -1.1367380329148168e-04 -8.8948015203511356e-19 -1.1367380329148168e-04 7.5505770402703610e-03  0.0000000000000000e+00 1.1632800140577717e-18 -7.0112785178548721e-19 1.1632800140577717e-18 2.5903804901954954e-02 -7.5995603149987955e-05 -7.0112785178548721e-19 -7.5995603149987955e-05 7.5303901712585747e-03  0.0000000000000000e+00 1.2026062268802592e-18 -6.5980563321348492e-19 1.2026062268802592e-18 2.5847400945784995e-02 -5.7922009265565093e-05 -6.5980563321348492e-19 -5.7922009265565093e-05 7.5869844721951577e-03  0.0000000000000000e+00 1.3381101285669312e-18 -5.1951417873847631e-19 1.3381101285669312e-18 2.5741322308398384e-02 -6.2538035321517809e-05 -5.1951417873847631e-19 -6.2538035321517809e-05 7.5975861736565535e-03  0.0000000000000000e+00 1.3698190370572758e-18 -4.8670930515576829e-19 1.3698190370572758e-18 2.5715784871279550e-02 -6.2023890565367719e-05 -4.8670930515576829e-19 -6.2023890565367719e-05 7.6044087483599556e-03  0.0000000000000000e+00 5.3038024989706781e-19 -1.3205326683047036e-18 5.3038024989706781e-19 2.5668677683486879e-02 -5.7560943885253314e-05 -1.3205326683047036e-18 -5.7560943885253314e-05 7.5592833435759177e-03  0.0000000000000000e+00 -1.1008215404636509e-18 -1.0657195745196733e-18 -1.1008215404636509e-18 -1.8127797301086136e-03 -3.1008761653371217e-04 -1.0657195745196733e-18 -3.1008761653371217e-04 5.6026369406278421e-04  0.0000000000000000e+00 1.0815420008791264e-18 -7.6217803807957327e-19 1.0815420008791264e-18 2.5762395887591744e-02 4.9632448381540388e-05 -7.6217803807957327e-19 4.9632448381540388e-05 7.5503765308887610e-03  0.0000000000000000e+00 5.9892700952062789e-19 -1.2309055632980678e-18 5.9892700952062789e-19 2.5931894453868436e-02 2.7997341657012191e-04 -1.2309055632980678e-18 2.7997341657012191e-04 7.5913855516608940e-03  0.0000000000000000e+00 8.0067023347122711e-19 -1.0465475170767612e-18 8.0067023347122711e-19 2.5995078493492887e-02 1.4050560901785551e-04 -1.0465475170767612e-18 1.4050560901785551e-04 7.5624494167020346e-03  0.0000000000000000e+00 9.3416442219423138e-19 -9.1617764724363818e-19 9.3416442219423138e-19 2.5974954563721332e-02 9.6160343118933264e-05 -9.1617764724363818e-19 9.6160343118933264e-05 7.5501655402287230e-03  0.0000000000000000e+00 1.1701690358611968e-18 -6.7633235779571673e-19 1.1701690358611968e-18 2.5841026827255326e-02 7.8297534016650018e-05 -6.7633235779571673e-19 7.8297534016650018e-05 7.5791801944252724e-03  0.0000000000000000e+00 1.2809699793711348e-18 -5.6070965899109422e-19 1.2809699793711348e-18 2.5800570387823483e-02 9.8676962029414778e-05 -5.6070965899109422e-19 9.8676962029414778e-05 7.5735344684915926e-03  0.0000000000000000e+00 1.3443640924430920e-18 -4.9888385468787706e-19 1.3443640924430920e-18 2.5697431779628958e-02 6.2270808955573195e-05 -4.9888385468787706e-19 6.2270808955573195e-05 7.6321129096865526e-03  0.0000000000000000e+00 -1.0737449151303690e-18 -9.6449838956708427e-19 -1.0737449151303690e-18 -1.9570396182641472e-03 3.4594690442229484e-04 -9.6449838956708427e-19 3.4594690442229484e-04 6.8092297983836706e-04  0.0000000000000000e+00 8.9461592788949504e-19 -9.5439465881108340e-19 8.9461592788949504e-19 2.6093222590648186e-02 5.9754231281724760e-05 -9.5439465881108340e-19 5.9754231281724760e-05 7.3350994289900981e-03  0.0000000000000000e+00 1.2755204268083476e-18 -5.9033585783723608e-19 1.2755204268083476e-18 2.5899735265627132e-02 -9.9854577519099434e-05 -5.9033585783723608e-19 -9.9854577519099434e-05 7.5128342523595156e-03  0.0000000000000000e+00 1.2717602122116854e-18 -5.8132344279152753e-19 1.2717602122116854e-18 2.5713541899633239e-02 -1.4612001120262567e-05 -5.8132344279152753e-19 -1.4612001120262567e-05 7.6394215307577697e-03  0.0000000000000000e+00 1.3256703876178296e-18 -5.2005731436220879e-19 1.3256703876178296e-18 2.5760692469138660e-02 1.2310319374418221e-05 -5.2005731436220879e-19 1.2310319374418221e-05 7.5136025330702037e-03  0.0000000000000000e+00 1.3762345973048359e-18 -4.6654111130102616e-19 1.3762345973048359e-18 2.5664912290793422e-02 5.1007592484394853e-05 -4.6654111130102616e-19 5.1007592484394853e-05 7.6335988725989238e-03  0.0000000000000000e+00 -1.2014217929656175e-18 -1.3002400524132969e-18 -1.2014217929656175e-18 -1.0493534506450160e-04 -8.1528070519563164e-04 -1.3002400524132969e-18 -8.1528070519563164e-04 2.5452544037672003e-04  0.0000000000000000e+00 -1.2862530160260321e-18 -1.3837698640759568e-18 -1.2862530160260321e-18 -2.6280513923271148e-04 -1.4188893649647368e-03 -1.3837698640759568e-18 -1.4188893649647368e-03 -8.1826622853001219e-04  0.0000000000000000e+00 9.8250555058365345e-19 -8.6469566890959336e-19 9.8250555058365345e-19 2.5889712018403059e-02 5.1940186974698928e-05 -8.6469566890959336e-19 5.1940186974698928e-05 7.4903872507018302e-03  0.0000000000000000e+00 9.9419055940495427e-19 -8.4991291880928731e-19 9.9419055940495427e-19 2.6035724824081001e-02 1.6521958958230226e-04 -8.4991291880928731e-19 1.6521958958230226e-04 7.5151293043575649e-03  0.0000000000000000e+00 1.2020712563269598e-18 -6.4257786053555783e-19 1.2020712563269598e-18 2.5765499868317995e-02 2.9820997317282119e-05 -6.4257786053555783e-19 2.9820997317282119e-05 7.5243864276428084e-03  0.0000000000000000e+00 1.2124543499407308e-18 -6.3181655919410358e-19 1.2124543499407308e-18 2.5866525571908321e-02 9.6933988640571591e-05 -6.3181655919410358e-19 9.6933988640571591e-05 7.5507735219733189e-03  0.0000000000000000e+00 -1.1819258931302809e-18 -1.2069811710956250e-18 -1.1819258931302809e-18 -1.3631228697376735e-04 -4.0485116089955352e-04 -1.2069811710956250e-18 -4.0485116089955352e-04 -2.2203427278739897e-04  0.0000000000000000e+00 -1.0573307612632868e-18 -1.0125165442518888e-18 -1.0573307612632868e-18 -1.4532158150046077e-03 2.9833465397960737e-05 -1.0125165442518888e-18 2.9833465397960737e-05 7.0558158166816550e-04  0.0000000000000000e+00 -1.0566544333573814e-18 -1.0269950529369441e-18 -1.0566544333573814e-18 -1.2278539314741922e-03 -1.0514518516185409e-04 -1.0269950529369441e-18 -1.0514518516185409e-04 4.8326766270965051e-04  0.0000000000000000e+00 1.2729382933279813e-18 -5.7012223951886282e-19 1.2729382933279813e-18 2.5683364284606873e-02 2.7869974977756831e-05 -5.7012223951886282e-19 2.7869974977756831e-05 7.5740025811492778e-03  0.0000000000000000e+00 7.7476437405742848e-19 -1.0702224467232816e-18 7.7476437405742848e-19 2.5735539031934162e-02 9.0266572588860541e-06 -1.0702224467232816e-18 9.0266572588860541e-06 7.5188421168669462e-03  0.0000000000000000e+00 8.6554240052068841e-19 -9.8248822797825520e-19 8.6554240052068841e-19 2.5869962914463480e-02 5.6482652405134662e-05 -9.8248822797825520e-19 5.6482652405134662e-05 7.5341625898534582e-03  0.0000000000000000e+00 1.1956676951384336e-18 -6.5223342999738778e-19 1.1956676951384336e-18 2.5722022498559292e-02 6.6738617433105761e-06 -6.5223342999738778e-19 6.6738617433105761e-06 7.5801524992427372e-03  0.0000000000000000e+00 9.7639135505440605e-19 -8.7551504076544970e-19 9.7639135505440605e-19 2.5825630731203159e-02 4.3877565608424121e-06 -8.7551504076544970e-19 4.3877565608424121e-06 7.5441245984793097e-03  0.0000000000000000e+00 1.3660129071573362e-18 -4.76284