<?xml version="1.0"?>
<VTKFile type="UnstructuredGrid"  version="0.1"  >
<UnstructuredGrid>
<Piece  NumberOfPoints="10500" NumberOfCells="20574">
<Points>
<DataArray  type="Float64"  NumberOfComponents="3"  format="ascii">4.060954603629186e-23 9.664837448680977e-07 4.820547207463946e-08  4.058356772359489e-23 9.665231817210039e-07 4.84789007663092e-08  4.062311207542363e-23 9.667023823570343e-07 4.830191754601854e-08  4.117583390641118e-23 9.668078688549436e-07 4.342892837977771e-08  4.113559651713327e-23 9.666129750039054e-07 4.359646071145624e-08  4.114754043066672e-23 9.66827597057266e-07 4.370350155573971e-08  4.115565794404773e-23 9.665468133852883e-07 4.334960182328618e-08  4.163927399695612e-23 9.672351824282232e-07 3.96819447148838e-08  4.161509772263815e-23 9.673116841586142e-07 3.99762069652941e-08  4.16557598346807e-23 9.674435308043456e-07 3.974180186573969e-08  4.054103932234444e-23 9.668484844120507e-07 4.918726524140444e-08  4.058178095045444e-23 9.670547961638921e-07 4.90266090308965e-08  4.057509323459371e-23 9.668314134701187e-07 4.886346392643973e-08  4.06475262806997e-23 9.666684253096567e-07 4.804805688707327e-08  4.11161503072924e-23 9.666478220324139e-07 4.380646362675091e-08  4.11166036428938e-23 9.668071563701283e-07 4.396171468037431e-08  4.065662651683348e-23 9.668512378308705e-07 4.814890176816497e-08  4.107985336258048e-23 9.667247671054229e-07 4.421034251311858e-08  4.111699112202118e-23 9.669929141833387e-07 4.41439823918773e-08  4.068900310337415e-23 9.668964960704183e-07 4.790253764155255e-08  4.111519377667848e-23 9.663743021831922e-07 4.354155943936211e-08  4.118372960531693e-23 9.670429093819139e-07 4.359285077344857e-08  4.075380732462867e-23 9.667017591305324e-07 4.712409616827879e-08  4.076621937323378e-23 9.669336325554034e-07 4.7244171798204e-08  4.079116351514928e-23 9.669083622687312e-07 4.699422465506047e-08  4.107392913027877e-23 9.669155569712833e-07 4.445449311975183e-08  4.08233024155007e-23 9.671202606994716e-07 4.691664160650733e-08  4.079731955782977e-23 9.670861420683252e-07 4.711655575161057e-08  4.143960606260071e-23 9.669651437914338e-07 4.121035494761618e-08  4.142568227901581e-23 9.670513751986762e-07 4.142200064798763e-08  4.146958393821268e-23 9.672194130248751e-07 4.119460748218662e-08  4.112467029720198e-23 9.672545125638256e-07 4.433641291139866e-08  4.082390896642177e-23 9.673040983295787e-07 4.709501591161019e-08  4.073068229337575e-23 9.667717815627109e-07 4.740241036472447e-08  4.13865448749139e-23 9.669074456437993e-07 4.163058949017002e-08  4.141096745112249e-23 9.671488751776399e-07 4.165204001378574e-08  4.060012909578839e-23 9.667543845848878e-07 4.856093205091431e-08  4.055882787078781e-23 9.665737785238864e-07 4.875233435295812e-08  4.140226820108435e-23 9.668289095352257e-07 4.141043024983184e-08  4.16767993146711e-23 9.673998054154632e-07 3.950856968836756e-08  4.115234408102774e-23 9.670314553210368e-07 4.386409238355863e-08  4.168532100614743e-23 9.67024539474629e-07 3.905654717441856e-08  4.169055904008017e-23 9.671874324384344e-07 3.917226012288874e-08  4.171582569337832e-23 9.671810940533271e-07 3.893833995702458e-08  4.109693633017334e-23 9.6644759070464e-07 4.377929641936442e-08  4.097161321414532e-23 9.671745428272031e-07 4.563505881921698e-08  4.09730787745787e-23 9.670098268825398e-07 4.545714227971035e-08  4.094785242084848e-23 9.66977131627709e-07 4.565166581939823e-08  4.164622978020897e-23 9.675549826265895e-07 3.993909278751892e-08  4.144550059277587e-23 9.67255439889344e-07 4.144755783772561e-08  4.144077530919689e-23 9.673954304796315e-07 4.163010999874418e-08  4.121417556643835e-23 9.670710387642109e-07 4.334674731742283e-08  4.12121756360169e-23 9.669131790380407e-07 4.320690136305427e-08  4.1194428614993e-23 9.667045247863427e-07 4.315809806589658e-08  4.151000440389909e-23 9.67279791906186e-07 4.089091117509072e-08  4.155023801402529e-23 9.673336728271893e-07 4.058239995294958e-08  4.150805388862208e-23 9.67087906094001e-07 4.071659404265499e-08  4.150259680356262e-23 9.66887558977594e-07 4.056539997872864e-08  4.154058181220079e-23 9.670964324550183e-07 4.043213491465591e-08  4.100372010474515e-23 9.67228806795266e-07 4.540012962619705e-08  4.151022114966114e-23 9.674677145689423e-07 4.107688156558049e-08  4.067540423992472e-23 9.666811393555309e-07 4.780966859939224e-08  4.147407325398766e-23 9.670432557000769e-07 4.09780139956857e-08  4.147444916460007e-23 9.676244894958347e-07 4.155586188965554e-08  4.147656092885758e-23 9.674435849468939e-07 4.135593625926831e-08  4.060602034861554e-23 9.67056719858685e-07 4.881020363663736e-08  4.078379278232457e-23 9.671749293523293e-07 4.732718139786419e-08  4.116008460369802e-23 9.67258477781694e-07 4.402139441418882e-08  4.056530826229038e-23 9.671204961754646e-07 4.92406818270239e-08  4.174722945744329e-23 9.673391644155027e-07 3.881355035891817e-08  4.173757890370689e-23 9.671509130028896e-07 3.87122234067273e-08  4.161549365984639e-23 9.674999869776575e-07 4.016094349901042e-08  4.166310038796398e-23 9.671908773800201e-07 3.94230306153516e-08  4.071757384152297e-23 9.665846333802732e-07 4.733333262004594e-08  4.078825553452253e-23 9.667332166886016e-07 4.684527183586487e-08  4.082085842263331e-23 9.66946649713193e-07 4.676504415096248e-08  4.176654975434308e-23 9.673133611955305e-07 3.861372537510875e-08  4.176581206709226e-23 9.671666062753999e-07 3.847361495103393e-08  4.170432848606449e-23 9.669833829596848e-07 3.884418650053098e-08  4.068217688758191e-23 9.670490685064712e-07 4.811659516340198e-08  4.064363021089304e-23 9.669429945894192e-07 4.835771884389473e-08  4.123314742202637e-23 9.66889997017905e-07 4.29948222876035e-08  4.137234447652447e-23 9.669957702118047e-07 4.184681987596572e-08  4.128807594330202e-23 9.669297172919931e-07 4.25397904257934e-08  4.131606573186203e-23 9.669179770642802e-07 4.227594059542241e-08  4.127946345743162e-23 9.667500866452259e-07 4.243773415533952e-08  4.200780187397507e-23 9.669596206496023e-07 3.608697891702666e-08  4.202905465386593e-23 9.669133046878183e-07 3.584923493204844e-08  4.199364101834488e-23 9.667468083613813e-07 3.600171627708436e-08  4.180185798961583e-23 9.672332235588094e-07 3.821555942795277e-08  4.175745407768369e-23 9.669656906116072e-07 3.834798136321328e-08  4.187775385012511e-23 9.667981541501574e-07 3.709688088108365e-08  4.18926503099786e-23 9.670225377268258e-07 3.718708907566132e-08  4.191271647343993e-23 9.669588679785608e-07 3.6942679394822e-08  4.193238269143062e-23 9.672220907796207e-07 3.702876465185247e-08  4.068846440878433e-23 9.665779249274248e-07 4.758881862806702e-08  4.12440300846039e-23 9.670990555471482e-07 4.310585850658872e-08  4.132128987432998e-23 9.671282081909192e-07 4.243911682991755e-08  4.082225380833039e-23 9.667856126496693e-07 4.659143857042796e-08  4.093939027097729e-23 9.668073271351263e-07 4.555808159682882e-08  4.064113689707934e-23 9.664643755382223e-07 4.790155756702241e-08  4.15885831809329e-23 9.674742811187217e-07 4.03776256856888e-08  4.157997263015605e-23 9.672938788026174e-07 4.027478031612474e-08  4.121902419765509e-23 9.666613758448732e-07 4.289341181060309e-08  4.071014600839846e-23 9.668243274472567e-07 4.763993066001294e-08  4.108448426838987e-23 9.665609154793217e-07 4.400477939566227e-08  4.088874889087111e-23 9.670928040021175e-07 4.629969546497153e-08  4.085656889894234e-23 9.668495580583572e-07 4.634630112052953e-08  4.085396668666196e-23 9.670087823245236e-07 4.652896403120852e-08  4.13993767467601e-23 9.672779123965859e-07 4.188547701642649e-08  4.185731269703955e-23 9.668514258953063e-07 3.733427016507084e-08  4.147255059319684e-23 9.668625978121061e-07 4.081107101685524e-08  4.061805029129426e-23 9.669751855970575e-07 4.862031328427949e-08  4.157197919508939e-23 9.670941433100304e-07 4.014704328591304e-08  4.172492460957528e-23 9.673605972338543e-07 3.903588738636347e-08  4.172933028818893e-23 9.669650127145199e-07 3.860062004190366e-08  4.119221739578699e-23 9.672636838690477e-07 4.373717404058591e-08  4.085310924753603e-23 9.671681989562245e-07 4.669610378796541e-08  4.071696095215955e-23 9.671394324433319e-07 4.789365209972208e-08  4.16514354827666e-23 9.66955627944708e-07 3.929284930543995e-08  4.194656063501658e-23 9.671022531247104e-07 3.678122343404102e-08  4.187102119457336e-23 9.670736316257627e-07 3.743300072675703e-08  4.096445593185277e-23 9.668306584515997e-07 4.535564151134501e-08  4.100112474425009e-23 9.670124654452111e-07 4.520716520525902e-08  4.13449878974253e-23 9.671386478005562e-07 4.22361036235915e-08  4.103892682536792e-23 9.666101903759112e-07 4.446439925908695e-08  4.193191846452337e-23 9.66896493211918e-07 3.670734846840282e-08  4.189816144664103e-23 9.66746091735303e-07 3.686100317809993e-08  4.092088628973618e-23 9.66835490250381e-07 4.575291375812826e-08  4.092888516744457e-23 9.67026746469914e-07 4.587212249232747e-08  4.08526500052934e-23 9.673261212933455e-07 4.685816261147201e-08  4.089114215546547e-23 9.669309931639473e-07 4.611632801573064e-08  4.167386845613007e-23 9.676308198595203e-07 3.976598295929118e-08  4.141597496498236e-23 9.667674133396874e-07 4.122547450072646e-08  4.196562636589899e-23 9.670499253413337e-07 3.655716681366921e-08  4.195174094461698e-23 9.668445183311858e-07 3.647682855974431e-08  4.135629364881308e-23 9.670610376122717e-07 4.205666027983273e-08  4.162512554514216e-23 9.670117681867347e-07 3.958596839802978e-08  4.126006463078496e-23 9.669025741345082e-07 4.276495074153661e-08  4.170075001518446e-23 9.673794721181828e-07 3.927250765927268e-08  4.083860688463791e-23 9.675065901585612e-07 4.716512066259007e-08  4.085935263986963e-23 9.675062252454363e-07 4.697789459840307e-08  4.197274292453497e-23 9.667912609159967e-07 3.623440212668986e-08  4.193758748542527e-23 9.666351898508859e-07 3.639498310652801e-08  4.15993131866589e-23 9.670627134762419e-07 3.986941074363054e-08  4.102715892037227e-23 9.667506945828744e-07 4.471089933115678e-08  4.105001480739781e-23 9.669884711419454e-07 4.47428
[...]
<PointData  Tensors="f_71"> 
<DataArray  type="Float64"  Name="f_71"  NumberOfComponents="9" format="ascii">-1.0858661910048332e+09 8.4115263932811613e-08 5.0561925592284750e-08 8.4115263932811613e-08 -1.7219769493019179e+08 1.1245282319811497e+07 5.0561925592284750e-08 1.1245282319811497e+07 -4.2735969756262743e+08  -1.0859439683205674e+09 8.4168618087320793e-08 5.0589680655426646e-08 8.4168618087320793e-08 -1.7225116534955212e+08 1.0586991140287587e+07 5.0589680655426646e-08 1.0586991140287587e+07 -4.2806711636802179e+08  -1.0855824060511863e+09 8.4174389943260540e-08 5.0675810304651370e-08 8.4174389943260540e-08 -1.7164727651517168e+08 1.1430408803882908e+07 5.0675810304651370e-08 1.1430408803882908e+07 -4.2819655903956038e+08  -1.0832936572751596e+09 8.3533488216993689e-08 5.0450152386607483e-08 8.3533488216993689e-08 -1.6780914806275833e+08 2.5345519530026350e+07 5.0450152386607483e-08 2.5345519530026350e+07 -4.1400394745888501e+08  -1.0837073812347980e+09 8.3528222136396395e-08 5.0336743609523827e-08 8.3528222136396395e-08 -1.6856901328448209e+08 2.4030899089987792e+07 5.0336743609523827e-08 2.4030899089987792e+07 -4.1399125276975971e+08  -1.0834442725862460e+09 8.3572123162113409e-08 5.0497093288122047e-08 8.3572123162113409e-08 -1.6805319087231773e+08 2.4651230542454220e+07 5.0497093288122047e-08 2.4651230542454220e+07 -4.1522331699216461e+08  -1.0836416403303134e+09 8.3479434537417790e-08 5.0253136912300208e-08 8.3479434537417790e-08 -1.6848028851627848e+08 2.4456051193149522e+07 5.0253136912300208e-08 2.4456051193149522e+07 -4.1263448767299765e+08  -1.0796281048473778e+09 8.3110305602309660e-08 5.0212658060419176e-08 8.3110305602309660e-08 -1.6150983582986256e+08 3.8519660388303258e+07 5.0212658060419176e-08 3.8519660388303258e+07 -3.9761770798737198e+08  -1.0797580463354690e+09 8.3158328737624978e-08 5.0319651570147003e-08 8.3158328737624978e-08 -1.6169352241601926e+08 3.8019074983358838e+07 5.0319651570147003e-08 3.8019074983358838e+07 -3.9945101374307430e+08  -1.0792256651630604e+09 8.3161356495844055e-08 5.0410753759530041e-08 8.3161356495844055e-08 -1.6074561722937554e+08 3.9592430953745112e+07 5.0410753759530041e-08 3.9592430953745112e+07 -3.9880101499419528e+08  -1.0855952124234147e+09 8.4320497517062971e-08 5.0741205236223745e-08 8.4320497517062971e-08 -1.7161025582473758e+08 9.2235170863297805e+06 5.0741205236223745e-08 9.2235170863297805e+06 -4.3026533983076239e+08  -1.0851867848448803e+09 8.4352338685790943e-08 5.0858922447274557e-08 8.4352338685790943e-08 -1.7091948833601943e+08 1.0005427189294701e+07 5.0858922447274557e-08 1.0005427189294701e+07 -4.3069672496737564e+08  -1.0856166734431365e+09 8.4285867483454813e-08 5.0747132063169679e-08 8.4285867483454813e-08 -1.7160601473001957e+08 1.0035553806735255e+07 5.0747132063169679e-08 1.0035553806735255e+07 -4.2981230908486193e+08  -1.0856152432866104e+09 8.4131284565962175e-08 5.0668837615629548e-08 8.4131284565962175e-08 -1.7171385981266925e+08 1.2124515898149787e+07 5.0668837615629548e-08 1.2124515898149787e+07 -4.2775547884569925e+08  -1.0837425441486096e+09 8.3566855975851624e-08 5.0397210181555138e-08 8.3566855975851624e-08 -1.6861162714481187e+08 2.3618852621934291e+07 5.0397210181555138e-08 2.3618852621934291e+07 -4.1504065837727338e+08  -1.0836430461390529e+09 8.3615306214138475e-08 5.0513228104310166e-08 8.3615306214138475e-08 -1.6838950592709342e+08 2.3780165850975335e+07 5.0513228104310166e-08 2.3780165850975335e+07 -4.1616466392782050e+08  -1.0854062325754061e+09 8.4177019225717779e-08 5.0762345715403924e-08 8.4177019225717779e-08 -1.7130434985598284e+08 1.2174097864382356e+07 5.0762345715403924e-08 1.2174097864382356e+07 -4.2858382590810752e+08  -1.0839604089298451e+09 8.3626467999067894e-08 5.0491511468606598e-08 8.3626467999067894e-08 -1.6894930785006598e+08 2.2800451112091590e+07 5.0491511468606598e-08 2.2800451112091590e+07 -4.1698411512367523e+08  -1.0834824567604756e+09 8.3669940288957073e-08 5.0663731679522050e-08 8.3669940288957073e-08 -1.6806991999912652e+08 2.3972481214787439e+07 5.0663731679522050e-08 2.3972481214787439e+07 -4.1768187374425614e+08  -1.0851922514061756e+09 8.4174258256084575e-08 5.0790435084792210e-08 8.4174258256084575e-08 -1.7091832908383536e+08 1.2884135504677616e+07 5.0790435084792210e-08 1.2884135504677616e+07 -4.2814600927341306e+08  -1.0840266952399483e+09 8.3489492818328521e-08 5.0172774932987570e-08 8.3489492818328521e-08 -1.6917363201162428e+08 2.3201279125951864e+07 5.0172774932987570e-08 2.3201279125951864e+07 -4.1291593427390689e+08  -1.0830909707208021e+09 8.3591314560484677e-08 5.0630295166305405e-08 8.3591314560484677e-08 -1.6739735724517393e+08 2.5821910411306854e+07 5.0630295166305405e-08 2.5821910411306854e+07 -4.1562085326513165e+08  -1.0852856342161388e+09 8.4020214289745847e-08 5.0666275662603564e-08 8.4020214289745847e-08 -1.7116467123189539e+08 1.4652599390114568e+07 5.0666275662603564e-08 1.4652599390114568e+07 -4.2578272986102122e+08  -1.0849502700030074e+09 8.4084649928211022e-08 5.0803295467584845e-08 8.4084649928211022e-08 -1.7051568732806048e+08 1.4908521928107552e+07 5.0803295467584845e-08 1.4908521928107552e+07 -4.2681194021907812e+08  -1.0849462087153001e+09 8.4040702665704616e-08 5.0779458409389918e-08 8.4040702665704616e-08 -1.7053101655325136e+08 1.5524631664493645e+07 5.0779458409389918e-08 1.5524631664493645e+07 -4.2617563253115022e+08  -1.0837447148668323e+09 8.3692332171230456e-08 5.0632472334978354e-08 8.3692332171230456e-08 -1.6852433836914173e+08 2.2916815884481460e+07 5.0632472334978354e-08 2.2916815884481460e+07 -4.1830256232382673e+08  -1.0845977639995711e+09 8.4082525531197466e-08 5.0911501811596043e-08 8.4082525531197466e-08 -1.6985203609259045e+08 1.6255584232297529e+07 5.0911501811596043e-08 1.6255584232297529e+07 -4.2681562271102285e+08  -1.0847231629036634e+09 8.4090953742520090e-08 5.0889765427592068e-08 8.4090953742520090e-08 -1.7009364823975369e+08 1.5689783907030540e+07 5.0889765427592068e-08 1.5689783907030540e+07 -4.2709591036477119e+08  -1.0814004121074755e+09 8.3251225413172207e-08 5.0240033890882287e-08 8.3251225413172207e-08 -1.6459795114927766e+08 3.2573741106764853e+07 5.0240033890882287e-08 3.2573741106764853e+07 -4.0429626919332129e+08  -1.0816271588996067e+09 8.3294643156700388e-08 5.0354759579452270e-08 8.3294643156700388e-08 -1.6494071588144290e+08 3.2232786300538864e+07 5.0354759579452270e-08 3.2232786300538864e+07 -4.0619809071140707e+08  -1.0810061419105563e+09 8.3297190837809813e-08 5.0445740595340280e-08 8.3297190837809813e-08 -1.6383213153947377e+08 3.3838746105219513e+07 5.0445740595340280e-08 3.3838746105219513e+07 -4.0544289155043745e+08  -1.0832198020835793e+09 8.3734440870015818e-08 5.0837971636769647e-08 8.3734440870015818e-08 -1.6753858934193614e+08 2.4339060041645724e+07 5.0837971636769647e-08 2.4339060041645724e+07 -4.1921520504349029e+08  -1.0843262953198178e+09 8.4148238225675329e-08 5.1025441931660797e-08 8.4148238225675329e-08 -1.6933674931557617e+08 1.6199650990433669e+07 5.1025441931660797e-08 1.6199650990433669e+07 -4.2785695550684559e+08  -1.0852032806181371e+09 8.4073280003108384e-08 5.0706427292134025e-08 8.4073280003108384e-08 -1.7098192341586885e+08 1.4036245462073877e+07 5.0706427292134025e-08 1.4036245462073877e+07 -4.2651992419536018e+08  -1.0819434375389206e+09 8.3288616119949483e-08 5.0262253246376230e-08 8.3288616119949483e-08 -1.6553368057615775e+08 3.0985987874316063e+07 5.0262253246376230e-08 3.0985987874316063e+07 -4.0635810465814924e+08  -1.0815689123384423e+09 8.3339234922932702e-08 5.0459498708606557e-08 8.3339234922932702e-08 -1.6480955657186499e+08 3.2058879368089903e+07 5.0459498708606557e-08 3.2058879368089903e+07 -4.0755168469972980e+08  -1.0856513574783649e+09 8.4224044696415998e-08 5.0715635254785719e-08 8.4224044696415998e-08 -1.7173305086890182e+08 1.0791575253327763e+07 5.0715635254785719e-08 1.0791575253327763e+07 -4.2910172453678298e+08  -1.0858873049288964e+09 8.4214429157648948e-08 5.0610895976686751e-08 8.4214429157648948e-08 -1.7217412843419471e+08 9.9194203859164584e+06 5.0610895976686751e-08 9.9194203859164584e+06 -4.2866654864402294e+08  -1.0819306107772555e+09 8.3254949651199724e-08 5.0169997079520533e-08 8.3254949651199724e-08 -1.6553543060758230e+08 3.1174862792291552e+07 5.0169997079520533e-08 3.1174862792291552e+07 -4.0503633807017386e+08  -1.0791033086576049e+09 8.3122528839623954e-08 5.0321586759132433e-08 8.3122528839623954e-08 -1.6055042911941814e+08 4.0024794915746324e+07 5.0321586759132433e-08 4.0024794915746324e+07 -3.9723188527844965e+08  -1.0832583872831974e+09 8.3629044437884629e-08 5.0653560238157544e-08 8.3629044437884629e-08 -1.6766933657870159e+08 2.4980021961960178e+07 5.0653560238157544e-08 2.4980021961960178e+07 -4.1665107872083443e+08  -1.0791595686459401e+09 8.3024216338813118e-08 4.9917841415414355e-08 8.3024216338813118e-08 -1.6077559758144674e+08 3.9237080526081309e+07 4.9917841415414355e-08 3.9237080526081309e+07 -3.9277555457362771e+08  -1.0791197299446719e+09 8.3050723900389638e-08 5.0059275559425150e-08 8.3050723900389638e-08 -1.6066688984672654e+08 3.9689365036042958e+07 5.0059275559425150e-08 3.9689365036042958e+07 -3.9420659684096992e+08  -1.0789357287903700e+09 8.3016193889968431e-08 5.0024178590822821e-08 8.3016193889968431e-08 -1.6035727538573655e+08 4.0487974210677184e+07 5.0024178590822821e-08 4.0487974210677184e+07 -3.9300185075100845e+08  -1.0840905901329722e+09 8.3527552679407769e-08 5.0258214349820082e-08 8.3527552679407769e-08 -1.6928654412130514e+08 2.2877654621835709e+07 5.0258214349820082e-08 2.2877654621835709e+07 -4.1428677550535232e+08  -1.0839805792332795e+09 8.3895583218608148e-08 5.0884432535134452e-08 8.3895583218608148e-08 -1.6881994128468776e+08 2.0333117268341515e+07 5.0884432535134452e-08 2.0333117268341515e+07 -4.2327848959333169e+08  -1.0840773277881408e+09 8.3845736017252847e-08 5.0767655603841471e-08 8.3845736017252847e-08 -1.6902672784273204e+08 2.0268510056751303e+07 5.0767655603841471e-08 2.0268510056751303e+07 -4.2205236398858702e+08  -1.0843703886496251e+09 8.3856347133048965e-08 5.0758579567469868e-08 8.3856347133048965e-08 -1.6956791598150411e+08 1.9592760814680919e+07 5.0758579567469868e-08 1.9592760814680919e+07 -4.2275428712312758e+08  -1.0792822388061552e+09 8.3211980800494030e-08 5.0531205850355480e-08 8.3211980800494030e-08 -1.6080115220018926e+08 3.9387956225866720e+07 5.0531205850355480e-08 3.9387956225866720e+07 -4.0046514858190107e+08  -1.0810846965008905e+09 8.3342611270641372e-08 5.0518178250892092e-08 8.3342611270641372e-08 -1.6393998239475697e+08 3.3235945317617368e+07 5.0518178250892092e-08 3.3235945317617368e+07 -4.0684132139387465e+08  -1.0810912700376015e+09 8.3395167822357869e-08 5.0658371017781649e-08 8.3395167822357869e-08 -1.6391454338548401e+08 3.3305572215653222e+07 5.0658371017781649e-08 3.3305572215653222e+07 -4.0847821388181376e+08  -1.0828999712639806e+09 8.3567149409078778e-08 5.0620734020442407e-08 8.3567149409078778e-08 -1.6705786802108550e+08 2.6540964413693000e+07 5.0620734020442407e-08 2.6540964413693000e+07 -4.1478868039641953e+08  -1.0829641028149753e+09 8.3529608996152993e-08 5.0503546560739313e-08 8.3529608996152993e-08 -1.6722029570764437e+08 2.6399764643809095e+07 5.0503546560739313e-08 2.6399764643809095e+07 -4.1351914494398183e+08  -1.0833053668242750e+09 8.3480304567726792e-08 5.0349694574918265e-08 8.3480304567726792e-08 -1.6787269431848088e+08 2.5660420765516926e+07 5.0349694574918265e-08 2.5660420765516926e+07 -4.1260515822057348e+08  -1.0806616264728611e+09 8.3264030025172615e-08 5.0445975236071711e-08 8.3264030025172615e-08 -1.6324346639998180e+08 3.5052228044058934e+07 5.0445975236071711e-08 3.5052228044058934e+07 -4.0421733241228992e+08  -1.0802983225488605e+09 8.3233717849241687e-08 5.0438271176402395e-08 8.3233717849241687e-08 -1.6260286143274587e+08 3.6260257148985945e+07 5.0438271176402395e-08 3.6260257148985945e+07 -4.0283546348344326e+08  -1.0807605629214678e+09 8.3215558351757226e-08 5.0270198221755942e-08 8.3215558351757226e-08 -1.6347020037851834e+08 3.4645127942056596e+07 5.0270198221755942e-08 3.4645127942056596e+07 -4.0244252498533952e+08  -1.0809851720902536e+09 8.3165408330739951e-08 5.0073793910581335e-08 8.3165408330739951e-08 -1.6392571170400944e+08 3.3906887117542379e+07 5.0073793910581335e-08 3.3906887117542379e+07 -4.0080348286002338e+08  -1.0804726758892517e+09 8.3180073837443616e-08 5.0216284065077173e-08 8.3180073837443616e-08 -1.6297762521026102e+08 3.5467389018093303e+07 5.0216284065077173e-08 3.5467389018093303e+07 -4.0085408849854636e+08  -1.0838111640193737e+09 8.3888937684324404e-08 5.0915659606473815e-08 8.3888937684324404e-08 -1.6852149285776290e+08 2.1116632326418910e+07 5.0915659606473815e-08 2.1116632326418910e+07 -4.2288377636478698e+08  -1.0805420704413464e+09 8.3315687539035375e-08 5.0618361905760716e-08 8.3315687539035375e-08 -1.6296916699839798e+08 3.5388210368346930e+07 5.0618361905760716e-08 3.5388210368346930e+07 -4.0596709990665585e+08  -1.0854556908865621e+09 8.4120360218978806e-08 5.0666917982247526e-08 8.4120360218978806e-08 -1.7143649253573996e+08 1.2612191119115856e+07 5.0666917982247526e-08 1.2612191119115856e+07 -4.2719652850086427e+08  -1.0811046264482973e+09 8.3236457780213504e-08 5.0276074935777903e-08 8.3236457780213504e-08 -1.6406316912503180e+08 3.3610202861203134e+07 5.0276074935777903e-08 3.3610202861203134e+07 -4.0367511270523930e+08  -1.0806675787167768e+09 8.3417582293485420e-08 5.0828416899899202e-08 8.3417582293485420e-08 -1.6310827662107345e+08 3.4655407681428321e+07 5.0828416899899202e-08 3.4655407681428321e+07 -4.0915993017411077e+08  -1.0808348533883531e+09 8.3351534948331822e-08 5.0659993798099489e-08 8.3351534948331822e-08 -1.6346414915197703e+08 3.4485530526407793e+07 5.0659993798099489e-08 3.4485530526407793e+07 -4.0745009930670124e+08  -1.0852318306550500e+09 8.4337684595028842e-08 5.0876227826851389e-08 8.4337684595028842e-08 -1.7095869017467570e+08 1.0500920865233539e+07 5.0876227826851389e-08 1.0500920865233539e+07 -4.3059909385799646e+08  -1.0846826470102825e+09 8.4139191596339373e-08 5.0945909546565465e-08 8.4139191596339373e-08 -1.6998544454378062e+08 1.5205413814796511e+07 5.0945909546565465e-08 1.5205413814796511e+07 -4.2801283040515262e+08  -1.0830869032321606e+09 8.3697493209074585e-08 5.0828663558582613e-08 8.3697493209074585e-08 -1.6731470319093433e+08 2.5283338398313273e+07 5.0828663558582613e-08 2.5283338398313273e+07 -4.1831154047314012e+08  -1.0853684360284343e+09 8.4393978641743985e-08 5.0895931765946062e-08 8.4393978641743985e-08 -1.7105387526427996e+08 9.4583111404222213e+06 5.0895931765946062e-08 9.4583111404222213e+06 -4.3156978378270996e+08  -1.0785023852946632e+09 8.3028272414201045e-08 5.0146430979095557e-08 8.3028272414201045e-08 -1.5956463669418848e+08 4.1886970133500040e+07 5.0146430979095557e-08 4.1886970133500040e+07 -3.9299838526629132e+08  -1.0785908412336535e+09 8.2995477121940007e-08 4.9951274721309147e-08 8.2995477121940007e-08 -1.5977906539976010e+08 4.1055494216577552e+07 4.9951274721309147e-08 4.1055494216577552e+07 -3.9122961153536624e+08  -1.0795973811349046e+09 8.3210589612919295e-08 5.0508439470353255e-08 8.3210589612919295e-08 -1.6135190537346053e+08 3.8548847114117704e+07 5.0508439470353255e-08 3.8548847114117704e+07 -4.0121895094096553e+08  -1.0793782955730751e+09 8.3077981968951490e-08 5.0129048161258451e-08 8.3077981968951490e-08 -1.6109590247824988e+08 3.9113321266136713e+07 5.0129048161258451e-08 3.9113321266136713e+07 -3.9582208009643900e+08  -1.0856053245569568e+09 8.4025617504048556e-08 5.0608215025566979e-08 8.4025617504048556e-08 -1.7171681786605328e+08 1.3761706165450787e+07 5.0608215025566979e-08 1.3761706165450787e+07 -4.2601108053348774e+08  -1.0851597093251345e+09 8.3994702344194084e-08 5.0676885445138635e-08 8.3994702344194084e-08 -1.7091955947823483e+08 1.5468297922468681e+07 5.0676885445138635e-08 1.5468297922468681e+07 -4.2521400114070547e+08  -1.0848153972624145e+09 8.4022059403558536e-08 5.0800346234473294e-08 8.4022059403558536e-08 -1.7030342361935589e+08 1.6285615191622924e+07 5.0800346234473294e-08 1.6285615191622924e+07 -4.2576915169770187e+08  -1.0783440769263783e+09 8.2994640646872736e-08 5.0067389422173221e-08 8.2994640646872736e-08 -1.5931503032953441e+08 4.2336629242175311e+07 5.0067389422173221e-08 4.2336629242175311e+07 -3.9149904080709797e+08  -1.0782957071084874e+09 8.2955953645809425e-08 4.9904026988731431e-08 8.2955953645809425e-08 -1.5927500345138404e+08 4.1920093457496628e+07 4.9904026988731431e-08 4.1920093457496628e+07 -3.8972331702331674e+08  -1.0789432276361370e+09 8.2980931877989733e-08 4.9820600767354422e-08 8.2980931877989733e-08 -1.6042713690340328e+08 3.9633386274902493e+07 4.9820600767354422e-08 3.9633386274902493e+07 -3.9108026663298470e+08  -1.0850076560983174e+09 8.4231986787472792e-08 5.0873810354132751e-08 8.4231986787472792e-08 -1.7055829395459548e+08 1.2654350008111922e+07 5.0873810354132751e-08 1.2654350008111922e+07 -4.2903205518108678e+08  -1.0853175584974632e+09 8.4231263584825662e-08 5.0814305131429115e-08 8.4231263584825662e-08 -1.7111629968733683e+08 1.1744034111528281e+07 5.0814305131429115e-08 1.1744034111528281e+07 -4.2930263388616580e+08  -1.0828731046026216e+09 8.3484501557585589e-08 5.0451305243133767e-08 8.3484501557585589e-08 -1.6706593618521857e+08 2.6963883414055772e+07 5.0451305243133767e-08 2.6963883414055772e+07 -4.1243989678890485e+08  -1.0819129948386118e+09 8.3339302917606329e-08 5.0350911092264414e-08 8.3339302917606329e-08 -1.6544400865489769e+08 3.0709840709499262e+07 5.0350911092264414e-08 3.0709840709499262e+07 -4.0754739244594175e+08  -1.0824936693245666e+09 8.3430405258231269e-08 5.0407487335926400e-08 8.3430405258231269e-08 -1.6641275517093730e+08 2.8330735475415803e+07 5.0407487335926400e-08 2.8330735475415803e+07 -4.1052780440890449e+08  -1.0823914338633046e+09 8.3398947223526870e-08 5.0378185864754881e-08 8.3398947223526870e-08 -1.6626207454627180e+08 2.8992435178479966e+07 5.0378185864754881e-08 2.8992435178479966e+07 -4.0959464749530387e+08  -1.0827151840405986e+09 8.3396612363698965e-08 5.0274356007962141e-08 8.3396612363698965e-08 -1.6686409388778290e+08 2.7818287514528796e+07 5.0274356007962141e-08 2.7818287514528796e+07 -4.0949149966404176e+08  -1.0752537310928655e+09 8.2740894690486262e-08 4.9188080209530159e-08 8.2740894690486262e-08 -1.5414569121721584e+08 4.7777826946888149e+07 4.9188080209530159e-08 4.7777826946888149e+07 -3.7238942880951434e+08  -1.0749582778928289e+09 8.2722666014399161e-08 4.9089424124306333e-08 8.2722666014399161e-08 -1.5360696643488622e+08 4.8181540439807326e+07 4.9089424124306333e-08 4.8181540439807326e+07 -3.7039921440721416e+08  -1.0754701310888982e+09 8.2707041828819135e-08 4.8950514850363279e-08 8.2707041828819135e-08 -1.5454224028109047e+08 4.6408971886287227e+07 4.8950514850363279e-08 4.6408971886287227e+07 -3.7061321731403273e+08  -1.0778881150569148e+09 8.2943185274283072e-08 4.9917260625041672e-08 8.2943185274283072e-08 -1.5854835165348238e+08 4.3121266787732020e+07 4.9917260625041672e-08 4.3121266787732020e+07 -3.8849359156131721e+08  -1.0784242635444837e+09 8.2925306453098062e-08 4.9720818929995544e-08 8.2925306453098062e-08 -1.5955642060529304e+08 4.1076669597405545e+07 4.9720818929995544e-08 4.1076669597405545e+07 -3.8816122835283232e+08  -1.0771144805909393e+09 8.2788633156606883e-08 4.9266034666654677e-08 8.2788633156606883e-08 -1.5730464243750733e+08 4.3559076826753922e+07 4.9266034666654677e-08 4.3559076826753922e+07 -3.7885250838011420e+08  -1.0768402426849573e+09 8.2829402937952189e-08 4.9513928750386785e-08 8.2829402937952189e-08 -1.5685453354919046e+08 4.4887252801215678e+07 4.9513928750386785e-08 4.4887252801215678e+07 -3.8074144240160322e+08  -1.0765834393888805e+09 8.2796818621357534e-08 4.9387164270027132e-08 8.2796818621357534e-08 -1.5637594644067040e+08 4.5234762221293069e+07 4.9387164270027132e-08 4.5234762221293069e+07 -3.7852029272192293e+08  -1.0762599310526600e+09 8.2851731638173360e-08 4.966476502