<?xml version="1.0"?>
<VTKFile type="UnstructuredGrid"  version="0.1"  >
<UnstructuredGrid>
<Piece  NumberOfPoints="10412" NumberOfCells="20437">
<Points>
<DataArray  type="Float64"  NumberOfComponents="3"  format="ascii">3.377330806630044e-23 9.249241761859685e-07 6.822126094104899e-08  3.361254692808431e-23 9.260002580669399e-07 7.074535042635212e-08  3.398542256333146e-23 9.274353221203229e-07 6.882184933582581e-08  3.384682389229446e-23 9.282870979698116e-07 7.092201103178713e-08  3.347231164578849e-23 9.272645250385755e-07 7.327274452817096e-08  3.422503494552066e-23 9.266859539086698e-07 6.591424465389144e-08  3.432964615901317e-23 9.288481346486294e-07 6.713417134964383e-08  3.417927189344058e-23 9.296839662732811e-07 6.932445394709314e-08  3.376706805473849e-23 9.292102907499433e-07 7.256358053251419e-08  3.360272842264584e-23 9.293137304777222e-07 7.414726007200244e-08  3.391638436234728e-23 9.309574820573006e-07 7.296585010525694e-08  3.370279385381123e-23 9.310482521456282e-07 7.498047246289024e-08  3.452172729225416e-23 9.286280072242704e-07 6.518393088510686e-08  3.465795948995875e-23 9.278083138861462e-07 6.313716699734602e-08  3.402693224753887e-23 9.302246143127101e-07 7.123725553155556e-08  3.446050178043401e-23 9.305022010585882e-07 6.760959510386214e-08  3.465521146072174e-23 9.302898508146931e-07 6.564345597278846e-08  3.442633180785699e-23 9.315162004794754e-07 6.893137027627958e-08  3.419869044128435e-23 9.319339513961405e-07 7.139953234028602e-08  3.393307374492826e-23 9.320051816249339e-07 7.386322507854473e-08  3.462060672421894e-23 9.320158102676773e-07 6.768110718261125e-08  3.480400162820731e-23 9.297539108555439e-07 6.376733332795053e-08  3.417692864546583e-23 9.329399278243592e-07 7.260152159958316e-08  3.424362965655404e-23 9.311742767208584e-07 7.023508119871815e-08  3.46084761308052e-23 9.329305328524711e-07 6.870509243936088e-08  3.357958856143181e-23 9.327627185063942e-07 7.780467344135625e-08  3.346813886314959e-23 9.331632466319337e-07 7.920905120620451e-08  3.367512747683025e-23 9.339154367363651e-07 7.80968536237515e-08  3.491495868072026e-23 9.31189362518916e-07 6.420337271061978e-08  3.467135750923647e-23 9.313733866154598e-07 6.658156109740629e-08  3.442236555619136e-23 9.3254501336338e-07 6.999590797923095e-08  3.369398725313887e-23 9.321992543449678e-07 7.621079746924272e-08  3.37923819027352e-23 9.33528187039995e-07 7.665346994975532e-08  3.48064288118252e-23 9.325320622320669e-07 6.652362257799935e-08  3.496688385974539e-23 9.295113161509742e-07 6.20576259088605e-08  3.384699668256893e-23 9.323179657174825e-07 7.495132242302661e-08  3.402845024762305e-23 9.331272747156481e-07 7.412624300526667e-08  3.48457747168018e-23 9.317921226666012e-07 6.542928660655134e-08  3.390420604299727e-23 9.332947362077335e-07 7.541279680466332e-08  3.478344989583103e-23 9.332831030907047e-07 6.748163911165454e-08  3.358033632626954e-23 9.343946413522985e-07 7.94298610203714e-08  3.44115747828433e-23 9.334772769279171e-07 7.10253661894268e-08  3.506239648421486e-23 9.309412075447385e-07 6.2627216062685e-08  3.377264925185569e-23 9.349367910442401e-07 7.823980987229638e-08  3.461244704285385e-23 9.338818005044687e-07 6.962059329531328e-08  3.422215458933197e-23 9.340261554265535e-07 7.328039011389133e-08  3.387164077551432e-23 9.34664005042161e-07 7.707538749209353e-08  3.493154208578951e-23 9.335840679197696e-07 6.644870807769255e-08  3.478292414739249e-23 9.341127429190234e-07 6.831601446091707e-08  3.493138322192702e-23 9.343163795672584e-07 6.718245064364511e-08  3.497220799752905e-23 9.329713107434081e-07 6.546966493141724e-08  3.408541189155813e-23 9.341336710936811e-07 7.461957450649878e-08  3.398045827770769e-23 9.34333439632433e-07 7.576468115770671e-08  3.441108162866298e-23 9.344492349155833e-07 7.200176611505841e-08  3.51431259650847e-23 9.321561938948225e-07 6.311505589284263e-08  3.503532671923199e-23 9.324886147084259e-07 6.441844599335217e-08  3.495611265013475e-23 9.351291539824659e-07 6.77724821715298e-08  3.363534545559423e-23 9.353898147292272e-07 7.99295562086428e-08  3.371221047653201e-23 9.352947741645014e-07 7.914217708461056e-08  3.376651473986136e-23 9.36022216393403e-07 7.93804899933228e-08  3.383872478740302e-23 9.358149269466642e-07 7.852279026018195e-08  3.393666567547454e-23 9.35614587424931e-07 7.744027764440235e-08  3.462582831564255e-23 9.348449535002685e-07 7.046321850082316e-08  3.481264095151086e-23 9.351324958246077e-07 6.906810219059314e-08  3.504451890896233e-23 9.344655313918433e-07 6.6312566792281e-08  3.370089442310428e-23 9.36213795122256e-07 8.016312399036602e-08  3.426022336126544e-23 9.349607767490498e-07 7.387211842219962e-08  3.508940317980481e-23 9.340590291870607e-07 6.550178301661644e-08  3.405664321054534e-23 9.35382951667278e-07 7.612798032227399e-08  3.522554186187097e-23 9.332806146959331e-07 6.349714028984104e-08  3.509346968761806e-23 9.352733070337957e-07 6.667943301720642e-08  3.413577584913461e-23 9.350386703577457e-07 7.50709355694147e-08  3.458942268003379e-23 9.354774072564693e-07 7.142358507094758e-08  3.436207060878767e-23 9.34870350066031e-07 7.286433328720116e-08  3.51778897839769e-23 9.35002814565249e-07 6.564855191965133e-08  3.441843407407157e-23 9.355965587116149e-07 7.308286497028535e-08  3.514627998836082e-23 9.336206369616972e-07 6.455109004361525e-08  3.388140618438989e-23 9.36532587015227e-07 7.885601048161334e-08  3.395478484737059e-23 9.363710322543091e-07 7.803351948218179e-08  3.448922708284079e-23 9.354581721842899e-07 7.230683170713326e-08  3.47124335892137e-23 9.357968702626134e-07 7.063506430760145e-08  3.435903692008906e-23 9.357576983299948e-07 7.377900658975022e-08  3.40881034816421e-23 9.361606619048342e-07 7.662232162945343e-08  3.382123942155684e-23 9.367286110427585e-07 7.959396853049493e-08  3.523968691644341e-23 9.346578616573948e-07 6.474697992629963e-08  3.49938148594764e-23 9.359398789279267e-07 6.824361580510646e-08  3.479759571216331e-23 9.357836244418794e-07 6.985474627650341e-08  3.398888705570264e-23 9.370109013906723e-07 7.836622323307148e-08  3.509110706041709e-23 9.359431992753096e-07 6.737060591268429e-08  3.491650289623524e-23 9.360942201249379e-07 6.909432125980591e-08  3.376528030942448e-23 9.369482334916801e-07 8.031762585251101e-08  3.471433564461827e-23 9.36327730797015e-07 7.114879264998036e-08  3.446475011630479e-23 9.362753112427898e-07 7.334443968037448e-08  3.40329079259098e-23 9.363636857361223e-07 7.732250282919849e-08  3.416360199487034e-23 9.36132669909696e-07 7.591429948223178e-08  3.413628587746631e-23 9.368294709015817e-07 7.685714218644148e-08  3.525521607137267e-23 9.358645364087617e-07 6.581378048496098e-08  3.511816837751499e-23 9.365944460211981e-07 6.777810598337618e-08  3.532352095474638e-23 9.343776172489148e-07 6.371162563049522e-08  3.488698901546516e-23 9.364070332634654e-07 6.967297180321022e-08  3.482758340248392e-23 9.365179143606899e-07 7.031893109340685e-08  3.498023282224578e-23 9.368027660768655e-07 6.922883906966679e-08  3.406227723111376e-23 9.3690749339613e-07 7.760177530526092e-08  3.392978911738151e-23 9.371861101303843e-07 7.907373887878632e-08  3.371562680716229e-23 9.371437045781696e-07 8.096033592757175e-08  3.382161817961415e-23 9.376416105908652e-07 8.050355652931e-08  3.504251779417677e-23 9.366612191415509e-07 6.852627898159368e-08  3.453744085961593e-23 9.362327239997982e-07 7.264711242840431e-08  3.420265685978995e-23 9.367276265657664e-07 7.615748118810422e-08  3.426952632901677e-23 9.357114701386294e-07 7.453901812758255e-08  3.531806932570221e-23 9.355446104370179e-07 6.492772272766203e-08  3.518917809499956e-23 9.365744018065054e-07 6.711846309427715e-08  3.438797813921689e-23 9.363351711481337e-07 7.409580008052959e-08  3.521172557627166e-23 9.362065029824172e-07 6.654747461367854e-08  3.419971067686034e-23 9.358614553512604e-07 7.531784683028611e-08  3.373264488620474e-23 9.37617181853222e-07 8.12805279737559e-08  3.46166904854257e-23 9.36223998272781e-07 7.192456953085479e-08  3.492866999440782e-23 9.369171106795686e-07 6.980762033684425e-08  3.386952118201445e-23 9.373633249851536e-07 7.979379903607855e-08  3.449661201543203e-23 9.368728304090919e-07 7.36549723726032e-08  3.538679777645569e-23 9.352781796793451e-07 6.404224111958296e-08  3.481488077904147e-23 9.370082678753622e-07 7.092369966848317e-08  3.538067927306358e-23 9.363485475023453e-07 6.516771952177684e-08  3.51486357240052e-23 9.371953725745834e-07 6.810460707616088e-08  3.431433081062716e-23 9.364158199178495e-07 7.483980501343242e-08  3.523634896393654e-23 9.371875197392838e-07 6.730670361152085e-08  3.442304114708674e-23 9.369535658985487e-07 7.439837533259031e-08  3.528196500521481e-23 9.368614399224627e-07 6.656975102169384e-08  3.382133898615007e-23 9.380965167482208e-07 8.096097743782712e-08  3.500872878776233e-23 9.373490508205021e-07 6.951845497393955e-08  3.532388033690213e-23 9.365935707314293e-07 6.592434208632421e-08  3.426173044062817e-23 9.365805789144511e-07 7.547834602348806e-08  3.507717040188104e-23 9.372717006407182e-07 6.882463753847235e-08  3.492808052062312e-23 9.373495961499844e-07 7.024541531509425e-08  3.398042719410432e-23 9.378045508057591e-07 7.923607230724191e-08  3.47202980019721e-23 9.368537239032615e-07 7.162108161551295e-08  3.544653634559168e-23 9.36094111313049e-07 6.432009555788595e-08  3.457124827430483e-23 9.368463040839577e-07 7.295618239217319e-08  3.402483019542519e-23 9.375794514866123e-07 7.861102630768955e-08  3.424286962448567e-23 9.37354432527082e-07 7.642208276522148e-08  3.40941260340074e-23 9.374782021775769e-07 7.788561557301971e-08  3.416535976624842e-23 9.373912427111467e-07 7.715703968663588e-08  3.435989348394047e-23 9.370720304482427e-07 7.508562346671401e-08  3.391215913828191e-23 9.378916659398561e-07 7.993809142286513e-08  3.375668502674574e-23 9.380772463586101e-07 8.152405814317927e-08  3.389708612958944e-23 9.382502208463585e-07 8.043241192202908e-08  3.516805305459221e-23 9.376941967556843e-07 6.842
[...]
<PointData  Tensors="f_71"> 
<DataArray  type="Float64"  Name="f_71"  NumberOfComponents="9" format="ascii">2.3104035035526950e+07 -4.7581161668449088e-09 -1.3167106907262433e-08 -4.7581161668449088e-09 3.1952947174681507e+07 8.6623494688355461e+07 -1.3167106907262433e-08 8.6623494688355461e+07 2.8512261682187307e+08  2.3968095528403834e+07 -4.1675431136995829e-09 -1.1989110554301475e-08 -4.1675431136995829e-09 3.3445319866418265e+07 1.0145011892687783e+08 -1.1989110554301475e-08 1.0145011892687783e+08 2.8773958859381741e+08  1.8132625459039859e+07 -7.0282499299073954e-09 -1.5584966198233843e-08 -7.0282499299073954e-09 2.1643335755197667e+07 9.9448492381416112e+07 -1.5584966198233843e-08 9.9448492381416112e+07 3.1669086535324341e+08  1.6236205069964385e+07 -7.1134321506260278e-09 -1.4975062396744098e-08 -7.1134321506260278e-09 1.8072004274601672e+07 1.1223801440563643e+08 -1.4975062396744098e-08 1.1223801440563643e+08 3.1895369102577651e+08  2.5426829699263964e+07 -3.9104776991252772e-09 -1.0881319177240930e-08 -3.9104776991252772e-09 3.5929899148481481e+07 1.1978590983348693e+08 -1.0881319177240930e-08 1.1978590983348693e+08 2.9310171891098911e+08  1.7531622129415661e+07 -7.5536639067580637e-09 -1.7086437119902039e-08 -7.5536639067580637e-09 2.0530484910996273e+07 8.1817223413180053e+07 -1.7086437119902039e-08 8.1817223413180053e+07 3.1689507652840126e+08  1.1621401072211832e+07 -9.5532616779266972e-09 -1.9071272319896713e-08 -9.5532616779266972e-09 8.7523283610574305e+06 9.3260847019226551e+07 -1.9071272319896713e-08 9.3260847019226551e+07 3.4148191243093836e+08  1.2881389402432740e+07 -9.3668630073752877e-09 -1.8301508965954400e-08 -9.3668630073752877e-09 1.0781784106920347e+07 1.0948749757956025e+08 -1.8301508965954400e-08 1.0948749757956025e+08 3.4926869002688038e+08  1.9740666333140422e+07 -7.6030788446070817e-09 -1.4647723228571589e-08 -7.6030788446070817e-09 2.3987948976741273e+07 1.3141288404077750e+08 -1.4647723228571589e-08 1.3141288404077750e+08 3.3326987198643345e+08  1.9046471245107833e+07 -6.0087010536180144e-09 -1.2684226224217660e-08 -6.0087010536180144e-09 2.3341595330004379e+07 1.3355816513712595e+08 -1.2684226224217660e-08 1.3355816513712595e+08 3.1621442688308829e+08  1.4835885814326432e+07 -9.4770080583647046e-09 -1.6746755526022140e-08 -9.4770080583647046e-09 1.4141776014013376e+07 1.3760807501723239e+08 -1.6746755526022140e-08 1.3760807501723239e+08 3.5561415663754982e+08  1.9629444128775582e+07 -7.4639267478594854e-09 -1.4669481728768751e-08 -7.4639267478594854e-09 2.3149116827380095e+07 1.4577679122494507e+08 -1.4669481728768751e-08 1.4577679122494507e+08 3.5043206144554752e+08  1.0353284541388880e+07 -1.0293051512790867e-08 -2.0424841866487727e-08 -1.0293051512790867e-08 6.1656516849647528e+06 8.5841399451568365e+07 -2.0424841866487727e-08 8.5841399451568365e+07 3.4836771944536120e+08  8.8775600409223773e+06 -9.6794878054183508e-09 -2.0638542871945526e-08 -9.6794878054183508e-09 3.9412739352555815e+06 6.7142058208050922e+07 -2.0638542871945526e-08 6.7142058208050922e+07 3.3511969730843014e+08  1.5667896227512527e+07 -8.9489892799693180e-09 -1.7366162607048251e-08 -8.9489892799693180e-09 1.5750914509550883e+07 1.2225756370737736e+08 -1.7366162607048251e-08 1.2225756370737736e+08 3.5347686564072472e+08  6.1631726223071218e+06 -1.1341148885537156e-08 -2.1174179442794188e-08 -1.1341148885537156e-08 -2.1991073652083487e+06 1.0127534054186930e+08 -2.1174179442794188e-08 1.0127534054186930e+08 3.6619152315737820e+08  6.3553471503013941e+06 -1.1761191913994799e-08 -2.2143588200067032e-08 -1.1761191913994799e-08 -1.8450243593475344e+06 8.9977863924259886e+07 -2.2143588200067032e-08 8.9977863924259886e+07 3.6617379051637828e+08  7.3537366814168766e+06 -1.2084751989687598e-08 -2.1456912042497251e-08 -1.2084751989687598e-08 -5.4797820330370509e+05 1.1502400105347794e+08 -2.1456912042497251e-08 1.1502400105347794e+08 3.8076024783788151e+08  9.9034425967935473e+06 -1.1147628497993775e-08 -1.9785582663898698e-08 -1.1147628497993775e-08 4.2275773286477542e+06 1.2901071931790373e+08 -1.9785582663898698e-08 1.2901071931790373e+08 3.7842251494397742e+08  1.2704086116580313e+07 -1.0233583884578156e-08 -1.7383535912260730e-08 -1.0233583884578156e-08 9.7375312707906719e+06 1.4698891475658605e+08 -1.7383535912260730e-08 1.4698891475658605e+08 3.6870077121500188e+08  2.7869339955594987e+06 -1.3009113450071960e-08 -2.3425524076929022e-08 -1.3009113450071960e-08 -9.3244675211976543e+06 1.0502245650585184e+08 -2.3425524076929022e-08 1.0502245650585184e+08 3.9097976726017582e+08  6.2895495119338837e+06 -1.1446914362449629e-08 -2.3106844903007882e-08 -1.1446914362449629e-08 -1.9633423456525244e+06 7.3575066089712903e+07 -2.3106844903007882e-08 7.3575066089712903e+07 3.6610099837208408e+08  8.8728623036020156e+06 -1.2161999628891632e-08 -2.0274457357460937e-08 -1.2161999628891632e-08 1.8445203374146402e+06 1.4183360860438928e+08 -2.0274457357460937e-08 1.4183360860438928e+08 3.9161903404385775e+08  9.5233828433685973e+06 -1.0927418025171161e-08 -1.9723981529329714e-08 -1.0927418025171161e-08 3.9113619787563290e+06 1.1913372222321540e+08 -1.9723981529329714e-08 1.1913372222321540e+08 3.6806618136623818e+08  1.2888482366086417e+06 -1.3929468517522343e-08 -2.3837609246327801e-08 -1.3929468517522343e-08 -1.2417391183311233e+07 1.1489044692722033e+08 -2.3837609246327801e-08 1.1489044692722033e+08 4.0011977701776171e+08  2.0675963784929313e+07 -7.9455178540099861e-09 -1.4064344058769042e-08 -7.9455178540099861e-09 2.4488405420604628e+07 1.7188018306195503e+08 -1.4064344058769042e-08 1.7188018306195503e+08 3.6627057054594833e+08  2.2440695954608165e+07 -7.2575792339169597e-09 -1.3056795335847185e-08 -7.2575792339169597e-09 2.7691519691533417e+07 1.8160777567013627e+08 -1.3056795335847185e-08 1.8160777567013627e+08 3.6741780570003766e+08  1.8576349960178323e+07 -9.5066425830482425e-09 -1.5964142363095574e-08 -9.5066425830482425e-09 1.9734172934776649e+07 1.7863381487136543e+08 -1.5964142363095574e-08 1.7863381487136543e+08 3.9042862458564675e+08  -2.2907538286917767e+05 -1.3197624591091815e-08 -2.4765170171986452e-08 -1.3197624591091815e-08 -1.4533612760980885e+07 8.0334164263967142e+07 -2.4765170171986452e-08 8.0334164263967142e+07 3.8184541464978826e+08  2.0356803776415931e+06 -1.2784595354900386e-08 -2.3043226273368789e-08 -1.2784595354900386e-08 -1.0234047821506102e+07 9.7843505405122608e+07 -2.3043226273368789e-08 9.7843505405122608e+07 3.7820728162932152e+08  3.8381093700404349e+06 -1.2925121836125213e-08 -2.2010294044465479e-08 -1.2925121836125213e-08 -7.3242061733388519e+06 1.2283455469781125e+08 -2.2010294044465479e-08 1.2283455469781125e+08 3.8916562126309627e+08  1.8465191573555294e+07 -8.4409720458495695e-09 -1.4995880093863343e-08 -8.4409720458495695e-09 2.0533489440103792e+07 1.6046609292134273e+08 -1.4995880093863343e-08 1.6046609292134273e+08 3.6326963636304706e+08  1.6099337122483557e+07 -1.0177823885210524e-08 -1.7015132807255902e-08 -1.0177823885210524e-08 1.5249084077771112e+07 1.6790424286829084e+08 -1.7015132807255902e-08 1.6790424286829084e+08 3.8852435087213999e+08  -2.3426173972336515e+06 -1.4239101327239733e-08 -2.4957665628114903e-08 -1.4239101327239733e-08 -1.8958259832785171e+07 9.9597949909397796e+07 -2.4957665628114903e-08 9.9597949909397796e+07 3.9639259747816133e+08  5.0237694212438101e+06 -1.1853962362089435e-08 -2.3976567501216220e-08 -1.1853962362089435e-08 -4.3542790914926240e+06 6.6121443946586423e+07 -2.3976567501216220e-08 6.6121443946586423e+07 3.6780681914120740e+08  1.4259366859476794e+07 -9.7826066128027352e-09 -1.7116029777071101e-08 -9.7826066128027352e-09 1.2370945108427795e+07 1.5226484685435328e+08 -1.7116029777071101e-08 1.5226484685435328e+08 3.7484010283652586e+08  1.0526345469247324e+07 -1.1356692506014409e-08 -1.9142112285091388e-08 -1.1356692506014409e-08 4.9392903946774555e+06 1.5023993127230445e+08 -1.9142112285091388e-08 1.5023993127230445e+08 3.9016188496826857e+08  5.3372504473162582e+05 -1.3756119639063640e-08 -2.4868057769551558e-08 -1.3756119639063640e-08 -1.3524739410207361e+07 9.2089021293134809e+07 -2.4868057769551558e-08 9.2089021293134809e+07 3.9250585725117183e+08  1.4423232515878009e+07 -1.0755169929703100e-08 -1.7881511378718827e-08 -1.0755169929703100e-08 1.2161453053289892e+07 1.6055955833539858e+08 -1.7881511378718827e-08 1.6055955833539858e+08 3.8866266468394941e+08  -2.0351691940771560e+06 -1.4659016323819580e-08 -2.5340474446836081e-08 -1.4659016323819580e-08 -1.8807473589763001e+07 1.0704455965933922e+08 -2.5340474446836081e-08 1.0704455965933922e+08 4.0761178410149091e+08  2.0252569026010800e+07 -8.9898936138737617e-09 -1.5102141882729821e-08 -8.9898936138737617e-09 2.2719537661752988e+07 1.8887560524188140e+08 -1.5102141882729821e-08 1.8887560524188140e+08 3.9306310141084266e+08  2.8218603261011774e+06 -1.3621346758385068e-08 -2.2693901011897378e-08 -1.3621346758385068e-08 -9.7161469957963973e+06 1.3136554217562364e+08 -2.2693901011897378e-08 1.3136554217562364e+08 4.0331565808080584e+08  -3.9292976441299688e+05 -1.3203036775227414e-08 -2.5482613660154252e-08 -1.3203036775227414e-08 -1.4805307047105467e+07 6.9238613245114341e+07 -2.5482613660154252e-08 6.9238613245114341e+07 3.8104316092443907e+08  1.4291162876668662e+07 -1.0970056145646749e-08 -1.7692591976001228e-08 -1.0970056145646749e-08 1.1203279802770080e+07 1.8257465345945743e+08 -1.7692591976001228e-08 1.8257465345945743e+08 4.0801654901056325e+08  -1.2598939330189654e+06 -1.4796996351357636e-08 -2.4563520388736804e-08 -1.4796996351357636e-08 -1.7556127821073078e+07 1.2323227377965596e+08 -2.4563520388736804e-08 1.2323227377965596e+08 4.1233226791531354e+08  7.2194034740688698e+06 -1.3229447964559764e-08 -2.1489801434151950e-08 -1.3229447964559764e-08 -1.8556994676603901e+06 1.4901579744414628e+08 -2.1489801434151950e-08 1.4901579744414628e+08 4.0945940558033425e+08  1.3478729847857982e+07 -1.1560989087956158e-08 -1.8519418425118308e-08 -1.1560989087956158e-08 9.7075971205438562e+06 1.7528072218640265e+08 -1.8519418425118308e-08 1.7528072218640265e+08 4.0805819142827451e+08  -5.1537034952219445e+06 -1.5512706289936552e-08 -2.6734011221230034e-08 -1.5512706289936552e-08 -2.4797011701787733e+07 1.0101113631217995e+08 -2.6734011221230034e-08 1.0101113631217995e+08 4.1449118549123502e+08  -4.0561603271515993e+06 -1.5547184406205356e-08 -2.5979466266292710e-08 -1.5547184406205356e-08 -2.2922187167009510e+07 1.1516342150534244e+08 -2.5979466266292710e-08 1.1516342150534244e+08 4.1837837949023515e+08  -6.9047193666210705e+06 -1.6096068205080275e-08 -2.7205373691723009e-08 -1.6096068205080275e-08 -2.8311443467649534e+07 1.0665868724593884e+08 -2.7205373691723009e-08 1.0665868724593884e+08 4.2244998324421787e+08  -3.9205007592606563e+06 -1.5016128418767469e-08 -2.6473613946829921e-08 -1.5016128418767469e-08 -2.2249263764001217e+07 9.3578088381470874e+07 -2.6473613946829921e-08 9.3578088381470874e+07 4.0692132890211016e+08  9.8165759146353789e+06 -1.2452744416628129e-08 -2.0367906456033639e-08 -1.2452744416628129e-08 2.9739193805196402e+06 1.5690409500671631e+08 -2.0367906456033639e-08 1.5690409500671631e+08 4.0802083696704620e+08  1.1103200676176524e+07 -1.2095087451301124e-08 -1.9353635644603996e-08 -1.2095087451301124e-08 5.4278915009639636e+06 1.6621029295355055e+08 -1.9353635644603996e-08 1.6621029295355055e+08 4.0564672265364987e+08  2.9091085769563494e+06 -1.4411861087404910e-08 -2.3336398908197824e-08 -1.4411861087404910e-08 -1.0108390451066550e+07 1.4122399395887005e+08 -2.3336398908197824e-08 1.4122399395887005e+08 4.1827042556384414e+08  -2.7733551023534709e+06 -1.4281921826724042e-08 -2.6762842840287076e-08 -1.4281921826724042e-08 -1.9834838833728295e+07 7.5818259957448810e+07 -2.6762842840287076e-08 7.5818259957448810e+07 3.9867654224211413e+08  -3.4549153722298769e+06 -1.4517252160768208e-08 -2.6485715362962649e-08 -1.4517252160768208e-08 -2.1189557010718081e+07 8.4495810082419008e+07 -2.6485715362962649e-08 8.4495810082419008e+07 4.0141646288573927e+08  -7.3811732214498157e+06 -1.6837901009059126e-08 -2.7996726879486179e-08 -1.6837901009059126e-08 -2.9665382081106793e+07 1.1249004242308085e+08 -2.7996726879486179e-08 1.1249004242308085e+08 4.3537526249683976e+08  1.7781301330214791e+07 -1.0136216871525328e-08 -1.6391989204179597e-08 -1.0136216871525328e-08 1.7557992934509728e+07 1.9499508506259540e+08 -1.6391989204179597e-08 1.9499508506259540e+08 4.0974788959868085e+08  1.7248053088383947e+07 -1.1015720289985347e-08 -1.7433193679315669e-08 -1.1015720289985347e-08 1.6313646972698748e+07 1.9292706618219700e+08 -1.7433193679315669e-08 1.9292706618219700e+08 4.1688170462023431e+08  1.5740150994885899e+07 -1.1780584632337178e-08 -1.8390117298757751e-08 -1.1780584632337178e-08 1.3121462797349190e+07 1.9569851251117116e+08 -1.8390117298757751e-08 1.9569851251117116e+08 4.2821926868401062e+08  1.4472565494533714e+07 -1.1948414346739528e-08 -1.9036763288809070e-08 -1.1948414346739528e-08 1.0803603284266246e+07 1.8790277305516472e+08 -1.9036763288809070e-08 1.8790277305516472e+08 4.2785760344129097e+08  1.1370129565782920e+07 -1.2732709980985850e-08 -1.9954588574690269e-08 -1.2732709980985850e-08 5.1323367732999902e+06 1.8121645169810003e+08 -1.9954588574690269e-08 1.8121645169810003e+08 4.2692649099521011e+08  -1.4093065381563862e+06 -1.5583448064264944e-08 -2.5434352077521194e-08 -1.5583448064264944e-08 -1.8417205526351586e+07 1.3069228421367952e+08 -2.5434352077521194e-08 1.3069228421367952e+08 4.2819597227312547e+08  -5.5193590484125149e+06 -1.6480699806997158e-08 -2.7011547592897912e-08 -1.6480699806997158e-08 -2.6155384169055350e+07 1.2105911951375102e+08 -2.7011547592897912e-08 1.2105911951375102e+08 4.3304990546068960e+08  -8.2637803445534352e+06 -1.6490181054098144e-08 -2.8030133997572377e-08 -1.6490181054098144e-08 -3.0955622956705038e+07 1.0183978392412114e+08 -2.8030133997572377e-08 1.0183978392412114e+08 4.2636614032584727e+08  1.6791215278648011e+07 -1.1210800651745247e-08 -1.7932146410770122e-08 -1.1210800651745247e-08 1.4973231339309024e+07 1.9963318688517573e+08 -1.7932146410770122e-08 1.9963318688517573e+08 4.3041762340098262e+08  4.6387727753730370e+06 -1.4146577147751362e-08 -2.2460390214620655e-08 -1.4146577147751362e-08 -7.0831315080229063e+06 1.5489274906767175e+08 -2.2460390214620655e-08 1.5489274906767175e+08 4.2248508137715787e+08  -8.0827452617368670e+06 -1.6118101838698929e-08 -2.7924606751943715e-08 -1.6118101838698929e-08 -3.0390687060966071e+07 9.4870971629059732e+07 -2.7924606751943715e-08 9.4870971629059732e+07 4.2008892826407349e+08  9.2144850794486105e+06 -1.3355654005661842e-08 -2.0919995445128350e-08 -1.3355654005661842e-08 1.2216670622146148e+06 1.7160017233850312e+08 -2.0919995445128350e-08 1.7160017233850312e+08 4.2547157922286326e+08  -7.2547699983715024e+06 -1.5420785596900380e-08 -2.8115285330118298e-08 -1.5420785596900380e-08 -2.8569402365961678e+07 7.9171584526757881e+07 -2.8115285330118298e-08 7.9171584526757881e+07 4.1201068074569750e+08  -1.0190782522634737e+07 -1.7272273984963784e-08 -2.9059236542039175e-08 -1.7272273984963784e-08 -3.4941694571936235e+07 1.0450921799868152e+08 -2.9059236542039175e-08 1.0450921799868152e+08 4.3832908396914601e+08  8.3390241158823613e+06 -1.3472206101363681e-08 -2.1416691470796268e-08 -1.3472206101363681e-08 -2.8809713790686597e+05 1.6324484251739213e+08 -2.1416691470796268e-08 1.6324484251739213e+08 4.2275792916907454e+08  -3.6066187800472644e+06 -1.6110603600476850e-08 -2.5553611368211654e-08 -1.6110603600476850e-08 -2.2645654752650358e+07 1.3873945102928659e+08 -2.5553611368211654e-08 1.3873945102928659e+08 4.3326591411462116e+08  1.7700725427186370e+06 -1.4738589140076522e-08 -2.3299316829158819e-08 -1.4738589140076522e-08 -1.2357229503065133e+07 1.4863147657459143e+08 -2.3299316829158819e-08 1.4863147657459143e+08 4.2243832870645410e+08  -1.0291540251806080e+07 -1.7109791021581958e-08 -2.9354071862251921e-08 -1.7109791021581958e-08 -3.5028710539153695e+07 9.6659928811628267e+07 -2.9354071862251921e-08 9.6659928811628267e+07 4.3566965646035767e+08  -1.3781833337329325e+05 -1.5487785986146413e-08 -2.4419039319944836e-08 -1.5487785986146413e-08 -1.6289521895225480e+07 1.4926557225867942e+08 -2.4419039319944836e-08 1.4926557225867942e+08 4.3389734515019763e+08  -7.4202497836426683e+06 -1.5700285936784753e-08 -2.7927813147430624e-08 -1.5700285936784753e-08 -2.9012708194048680e+07 8.7462022539810210e+07 -2.7927813147430624e-08 8.7462022539810210e+07 4.1577094032354641e+08  1.2803771148257520e+07 -1.2906325186769957e-08 -2.0060325133181826e-08 -1.2906325186769957e-08 7.2501211250817329e+06 1.9280410566884372e+08 -2.0060325133181826e-08 1.9280410566884372e+08 4.4096479856004202e+08  1.0141597501393003e+07 -1.3442903099561201e-08 -2.0667155118852314e-08 -1.3442903099561201e-08 2.4581261155402153e+06 1.8689399122893929e+08 -2.0667155118852314e-08 1.8689399122893929e+08 4.3815071449037689e+08  -3.0374488082682667e+05 -1.5642011903840769e-08 -2.5077481210511356e-08 -1.5642011903840769e-08 -1.6677089038550189e+07 1.4287014593168545e+08 -2.5077481210511356e-08 1.4287014593168545e+08 4.3612722984954715e+08  -5.2803269433364244e+06 -1.6742263138599524e-08 -2.7109763766376534e-08 -1.6742263138599524e-08 -2.6104570996986736e+07 1.3093528348243937e+08 -2.7109763766376534e-08 1.3093528348243937e+08 4.4356953150087172e+08  1.6862687734226240e+06 -1.5555801645049282e-08 -2.4344155271392906e-08 -1.5555801645049282e-08 -1.3178828975033494e+07 1.5572309698379216e+08 -2.4344155271392906e-08 1.5572309698379216e+08 4.4049806110609889e+08  6.1038155090680281e+06 -1.4168732651893128e-08 -2.1798582014566433e-08 -1.4168732651893128e-08 -4.8833481320991376e+06 1.7600937317383090e+08 -2.1798582014566433e-08 1.7600937317383090e+08 4.3586687364931440e+08  1.4315094539631555e+07 -1.2642096472300258e-08 -1.9617913587822425e-08 -1.2642096472300258e-08 9.9358161370719597e+06 1.9873811134779471e+08 -1.9617913587822425e-08 1.9873811134779471e+08 4.4349971600994831e+08  -1.0883786967756912e+07 -1.6801173595548867e-08 -2.9367152830021223e-08 -1.6801173595548867e-08 -3.5898905638131671e+07 8.9214859488810703e+07 -2.9367152830021223e-08 8.9214859488810703e+07 4.2974390192317867e+08  -1.0228596408804180e+07 -1.7513796555887906e-08 -2.8765611532746043e-08 -1.7513796555887906e-08 -3.5200225238817900e+07 1.1523159483962783e+08 -2.8765611532746043e-08 1.1523159483962783e+08 4.4344244943038929e+08  -7.5080605183371101e+06 -1.6956614324766504e-08 -2.7255581498149931e-08 -1.6956614324766504e-08 -3.0036022221787948e+07 1.2766128239655606e+08 -2.7255581498149931e-08 1.2766128239655606e+08 4.3908974011643952e+08  9.3003399643594585e+06 -1.4175845803450080e-08 -2.1656542135022173e-08 -1.4175845803450080e-08 3.9688234718363645e+05 1.9088401218246892e+08 -2.1656542135022173e-08 1.9088401218246892e+08 4.5206000998359126e+08  -1.1316759613916468e+07 -1.7946893473050256e-08 -2.9561942866822411e-08 -1.7946893473050256e-08 -3.7304518411201276e+07 1.0991546328180525e+08 -2.9561942866822411e-08 1.0991546328180525e+08 4.4623088339796507e+08  -9.0939692500058096e+06 -1.7717094623605153e-08 -2.8794343374664871e-08 -1.7717094623605153e-08 -3.3364002457483891e+07 1.2173978360059027e+08 -2.8794343374664871e-08 1.2173978360059027e+08 4.5021955208627242e+08  1.4926470970294513e+07 -1.2093363163256170e-08 -1.9092039991325806e-08 -1.2093363163256170e-08 1.1045107617383450e+07 2.0246545209063858e+08 -1.9092039991325806e-08 2.0246545209063858e+08 4.4390908668171710e+08  -5.3057823172257515e+06 -1.7285764939409994e-08 -2.7424139082378986e-08 -1.7285764939409994e-08 -2.6450847799540713e+07 1.3764897885776058e+08 -2.7424139082378986e-08 1.3764897885776058e+08 4.5167270454522604e+08  -1.2015851022094195e+06 -1.6227623801622985e-08 -2.5502466971442677e-08 -1.6227623801622985e-08 -1.8751692682466511e+07 1.5186385743106472e+08 -2.5502466971442677e-08 1.5186385743106472e+08 4.4758343156417775e+08  8.7917468366674688e+06 -1.4071107350953514e-08 -2.1705319099026374e-08 -1.4071107350953514e-08 -