<?xml version="1.0"?>
<VTKFile type="UnstructuredGrid"  version="0.1"  >
<UnstructuredGrid>
<Piece  NumberOfPoints="10102" NumberOfCells="19938">
<Points>
<DataArray  type="Float64"  NumberOfComponents="3"  format="ascii">3.094387000623446e-23 9.362176028589572e-07 1.049999999999998e-07  3.10545148279091e-23 9.37214202814286e-07 1.049999999999998e-07  3.104604218909993e-23 9.366170237105078e-07 1.044791356421893e-07  3.083322518455982e-23 9.352210029036284e-07 1.049999999999998e-07  3.095512173311036e-23 9.357173904345722e-07 1.043984410296837e-07  3.072258036288518e-23 9.342244029482996e-07 1.049999999999998e-07  3.086463171054106e-23 9.347789206024705e-07 1.042750328614297e-07  3.059632895162771e-23 9.330872313309114e-07 1.049999999999998e-07  3.075947029412553e-23 9.337348712932476e-07 1.041781933837722e-07  3.044975623160136e-23 9.317670216363246e-07 1.049999999999998e-07  3.063903409232463e-23 9.325055537365178e-07 1.040336686941473e-07  3.028316687981452e-23 9.302665181510625e-07 1.049999999999998e-07  3.050032863555032e-23 9.310628064616588e-07 1.038402691061744e-07  3.010603849382264e-23 9.286710874847629e-07 1.049999999999998e-07  3.03427994722671e-23 9.294660556925816e-07 1.036624148992218e-07  2.990582970273149e-23 9.268677670108541e-07 1.049999999999998e-07  3.015866717742381e-23 9.276454888355242e-07 1.035003643110506e-07  2.965009987018127e-23 9.245643574536929e-07 1.049999999999998e-07  2.995570209245911e-23 9.256264007947319e-07 1.033094232322908e-07  2.936922844892102e-23 9.220344925974394e-07 1.049999999999998e-07  2.970520031681734e-23 9.232186528971138e-07 1.031579947415445e-07  2.907846410483031e-23 9.194155202140404e-07 1.049999999999998e-07  2.94394143556429e-23 9.208425938058328e-07 1.031759227616746e-07  2.829751699895409e-23 9.12381374024e-07 1.049999999999998e-07  2.871480795986355e-23 9.161399968561137e-07 1.049999999999998e-07  2.889777749075006e-23 9.142568662279411e-07 1.014688263495859e-07  2.78283854967732e-23 9.081558131071807e-07 1.049999999999998e-07  2.843264916062678e-23 9.098796884203227e-07 1.012811520904129e-07  2.722746484270379e-23 9.027432010396881e-07 1.049999999999998e-07  2.790434448377107e-23 9.047830409331678e-07 1.00943050094909e-07  2.658876551113481e-23 8.969903088963765e-07 1.049999999999998e-07  2.733213812717208e-23 8.993518775028901e-07 1.006658633333476e-07  2.587413663226682e-23 8.905535041912203e-07 1.049999999999998e-07  2.67404801076417e-23 8.941443876442403e-07 1.007875551472734e-07  2.414672788881825e-23 8.749943894445973e-07 1.049999999999998e-07  2.505234248150101e-23 8.83151440528892e-07 1.049999999999998e-07  2.539580494672813e-23 8.788943873176128e-07 9.764931192789539e-08  2.440660507046355e-23 8.694357510350442e-07 9.710059603360698e-08  3.111347616068899e-23 9.372017299640655e-07 1.044564506771058e-07  3.116515964958374e-23 9.382108027696148e-07 1.049999999999998e-07  3.116710283519918e-23 9.377893259728444e-07 1.045610205432023e-07  2.930618399494245e-23 9.182097378505417e-07 1.017430992119935e-07  2.643632526516861e-23 8.883599417560745e-07 9.77426925295571e-08  3.121627217655906e-23 9.382801874862426e-07 1.046090040017476e-07  3.123086934728239e-23 9.381334313005722e-07 1.043307681908167e-07  3.121972996744241e-23 9.37865119956152e-07 1.041627914601895e-07  3.107037656909137e-23 9.362283351293663e-07 1.038712624517243e-07  3.090336851611943e-23 9.343667458984256e-07 1.035139480310483e-07  3.118038442597833e-23 9.374622135912391e-07 1.041142782270293e-07  3.040907053576723e-23 9.286460986704096e-07 1.022455412032805e-07  3.022994499388832e-23 9.265957866687302e-07 1.018086486489179e-07  3.003173516221399e-23 9.243870830170066e-07 1.013852604453337e-07  2.97540204361387e-23 9.215970002237504e-07 1.010966095258135e-07  2.668250594107438e-23 8.834044426930997e-07 9.056979506603225e-08  2.85760971564122e-23 9.070901470905756e-07 9.719954607993323e-08  2.804529672152557e-23 9.017989204775585e-07 9.668934474844323e-08  2.743306337873163e-23 8.95757917485563e-07 9.616284946538884e-08  3.113182073105943e-23 9.369283539015787e-07 1.040178414140498e-07  3.080653517533485e-23 9.332487835607567e-07 1.032681828883283e-07  3.069667074462496e-23 9.31908958922628e-07 1.029179290686122e-07  2.944331999723571e-23 9.161009782875222e-07 9.839912835131999e-08  3.057064640190419e-23 9.304154020327204e-07 1.025594985445384e-07  2.904537530200729e-23 9.119147529249103e-07 9.779727015099761e-08  2.573995606418084e-23 8.741608439010064e-07 8.981593082265064e-08  3.127487854026913e-23 9.384922599788224e-07 1.04293197298795e-07  3.098896966459999e-23 9.353350395328535e-07 1.037112150646771e-07  2.764972498851277e-23 8.920224782134482e-07 9.047589590312237e-08  2.478671039944208e-23 8.640513390906559e-07 8.829249965332025e-08  3.125221227988135e-23 9.386957541063042e-07 1.047008509499494e-07  2.981903383174019e-23 9.198678297136189e-07 9.878185040727199e-08  3.127301312328486e-23 9.381739139466629e-07 1.03991653449106e-07  3.11114439672706e-23 9.359282241546658e-07 1.032012492387497e-07  3.127580447125837e-23 9.392074027249435e-07 1.049999999999998e-07  3.066104553402935e-23 9.297889682405146e-07 1.011188217568256e-07  3.050835156741006e-23 9.277330696440902e-07 1.004382681427379e-07  2.821913693764975e-23 8.989710867287309e-07 9.229569753449781e-08  2.62208124351757e-23 8.702120423398863e-07 8.153596011506813e-08  2.53897987168427e-23 8.596351539543613e-07 7.844417787399169e-08  3.034412842374417e-23 9.25708566636763e-07 9.989295571264931e-08  3.121603812636963e-23 9.373070941809123e-07 1.036380188331091e-07  3.088101752512528e-23 9.327955163481851e-07 1.02144038310233e-07  2.877626150068257e-23 9.046684048178427e-07 9.297488367466251e-08  3.125327390485806e-23 9.377914251074998e-07 1.037869596834459e-07  3.096661257820764e-23 9.34009653357073e-07 1.02587203620788e-07  3.130186195213771e-23 9.388342100056898e-07 1.043921023583894e-07  3.10441412813343e-23 9.350496571930778e-07 1.029288909797692e-07  3.077495537346166e-23 9.31377241224256e-07 1.016810861197246e-07  3.116915099221255e-23 9.366883637009296e-07 1.034416101129631e-07  3.12998688059246e-23 9.390869570504827e-07 1.046628020682676e-07  3.011839011208653e-23 9.230196732719372e-07 9.923733230035271e-08  2.781923515978233e-23 8.869568458054506e-07 8.38834516067946e-08  2.962524125372252e-23 9.139636915864694e-07 9.462324064441758e-08  2.924300876197139e-23 9.096711294753302e-07 9.377352274811689e-08  3.133223740688384e-23 9.387859135987271e-07 1.04070208178075e-07  3.134726029214558e-23 9.390355526249373e-07 1.041845330833516e-07  3.138009549841097e-23 9.390545998311555e-07 1.039078270441669e-07  3.132479573288466e-23 9.38501150986321e-07 1.038524742061682e-07  3.002886253202275e-23 9.182773577650167e-07 9.530140954586145e-08  3.138682392967571e-23 9.392727216777217e-07 1.040653445696598e-07  3.132733791707593e-23 9.390658619052106e-07 1.043942871655049e-07  3.137467177237918e-23 9.388284284575507e-07 1.037305082516335e-07  2.697644214216812e-23 8.788659444241695e-07 8.338375486566916e-08  3.135901888451731e-23 9.392402211991026e-07 1.042832896730694e-07  3.128802364184399e-23 9.376792848000801e-07 1.033618215709441e-07  3.116567352908142e-23 9.357033350178587e-07 1.024879036332152e-07  3.110979790657619e-23 9.347721884224752e-07 1.02060039903219e-07  3.089186945049125e-23 9.309117861346535e-07 1.001625626426325e-07  3.260354233135407e-23 9.511666021888888e-07 1.049999999999998e-07  3.271418715302871e-23 9.521632021442176e-07 1.049999999999998e-07  3.267957579573682e-23 9.516403740541438e-07 1.047889233015311e-07  3.149709411460766e-23 9.412006026356011e-07 1.049999999999998e-07  3.16077389362823e-23 9.421972025909299e-07 1.049999999999998e-07  3.157148429809069e-23 9.416631143024951e-07 1.047924644616655e-07  2.869365997733051e-23 8.939035967223672e-07 8.295408395876416e-08  3.122042904109843e-23 9.365122236889898e-07 1.028035984973138e-07  2.906850448877368e-23 9.025610544023264e-07 8.82352424346087e-08  3.09830393011985e-23 9.325247456550362e-07 1.009543371516701e-07  3.272198103681516e-23 9.519638223959911e-07 1.047304191875405e-07  3.274920015844918e-23 9.521907897081854e-07 1.047122184476381e-07  3.275374641828763e-23 9.520613117236846e-07 1.045417913949087e-07  3.27210132606659e-23 9.517964905197089e-07 1.045718042638687e-07  3.161948039711236e-23 9.420403125177722e-07 1.047373522496042e-07  3.164117778998968e-23 9.422977342104129e-07 1.047993412012905e-07  3.161154037377248e-23 9.418082370281125e-07 1.04576794132254e-07  3.165092501840075e-23 9.422214268357494e-07 1.046352385981469e-07  3.164566764816655e-23 9.420599989883581e-07 1.04521164932011e-07  3.27594348706251e-23 9.519290090988185e-07 1.043582517463878e-07  3.278336147567785e-23 9.523089253381181e-07 1.045226562864878e-07  3.26445230768217e-23 9.512736038298922e-07 1.047378799009685e-07  3.153531351494835e-23 9.413023167733706e-07 1.047574643835041e-07  3.26368257978217e-23 9.510888282405854e-07 1.04622435237334e-07  3.260586202403483e-23 9.509809397975574e-07 1.04793443674483e-07  3.152579890228478e-23 9.411170800835628e-07 1.046579277057887e-07  3.149719502703533e-23 9.410097661931505e-07 1.04808254619206e-07  3.266803843225584e-23 9.512524286833265e-07 1.045048972624614e-07  3.155591371193344e-23 9.412658072704003e-07 1.045354048016021e-07  3.157838910200469e-23 9.415155075269108e-07 1.045826647414128e-07  3.268842474397251e-23 9.515011136760917e-07 1.045699586835253e-07  3.264979651727202e-23 9.510231409951963e-07 1.044399181373786e-07  3.153629872428038e-23 9.410660086331021e-07 1.045122822664743e-07  3.150873540086929e-23 9.409309033736251e-07 1.046254453530839e-07  3.261868731384009e-23 9.508963238548136e-07 1.045933077909634e-07  3.16777177511348e-23 9.422942927095501e-07 1.04466776989633e-07  3.16747340701807e-23 9.424412082513453e-07 1.046405671402945e-07  3.277667593614333e-23 9.524497610965912e-07 1.047237100316737e-07  3.281213799319242e-23 9.525458666528807e-07 1.045004017741392e-07  3.262910760992525e-23 9.50801188065872e-07 1.
[...]
<PointData  Tensors="f_71"> 
<DataArray  type="Float64"  Name="f_71"  NumberOfComponents="9" format="ascii">-1.6453730355141434e+08 5.0915938068826348e-08 1.7919052875888273e-08 5.0915938068826348e-08 -3.0275313908259994e+08 2.9970165049112313e+06 1.7919052875888273e-08 2.9970165049112313e+06 6.4803176530136568e+06  -1.6014181089044267e+08 6.0992280303925577e-08 2.2733168422931018e-08 6.0992280303925577e-08 -2.9546885238904613e+08 6.6987080839952221e+05 2.2733168422931018e-08 6.6987080839952221e+05 9.2626181035772432e+06  -1.3216379654378711e+08 5.9115958784301778e-08 2.3442404980066157e-08 5.9115958784301778e-08 -2.4292018120841366e+08 -3.3168310064000306e+06 2.3442404980066157e-08 -3.3168310064000306e+06 -2.0491261504936405e+06  -1.6252473735358801e+08 4.4633863543354543e-08 1.4998031470699881e-08 4.4633863543354543e-08 -2.9904470893690425e+08 1.9011879419331776e+06 1.4998031470699881e-08 1.9011879419331776e+06 3.7515992693489376e+06  -1.2888136664687417e+08 5.2151641655106019e-08 2.0510659335676270e-08 5.2151641655106019e-08 -2.3701651177128083e+08 3.1049527139422339e+06 2.0510659335676270e-08 3.1049527139422339e+06 -8.9047333744992851e+05  -1.6033695320727953e+08 3.9793077573219005e-08 1.2716874160725172e-08 3.9793077573219005e-08 -2.9489018683830059e+08 -9.4360745264006837e+05 1.2716874160725172e-08 -9.4360745264006837e+05 3.9911652687902225e+05  -1.2922781257994600e+08 4.6085992391832390e-08 1.7406141280149304e-08 4.6085992391832390e-08 -2.3767043496073800e+08 2.7949359563965462e+06 1.7406141280149304e-08 2.7949359563965462e+06 3.3596270451852342e+05  -1.5853004338360125e+08 3.4724051278076893e-08 1.0340001643984882e-08 3.4724051278076893e-08 -2.9155834165203929e+08 -4.5710966283591004e+05 1.0340001643984882e-08 -4.5710966283591004e+05 1.7206198156809475e+05  -1.2811133799732877e+08 4.0898051097924890e-08 1.4775747470471614e-08 4.0898051097924890e-08 -2.3566888416494715e+08 2.2178269378674966e+06 1.4775747470471614e-08 2.2178269378674966e+06 1.6008264223421477e+06  -1.5544594457001948e+08 2.9975795940365550e-08 8.2526581073743595e-09 2.9975795940365550e-08 -2.8584968440398324e+08 4.5269971743483684e+05 8.2526581073743595e-09 4.5269971743483684e+05 -8.2684363696220051e+05  -1.2630438642923449e+08 3.5914966480149543e-08 1.2401942467189375e-08 3.5914966480149543e-08 -2.3233516590636867e+08 2.0879345911907209e+06 1.2401942467189375e-08 2.0879345911907209e+06 1.3295698922909242e+06  -1.5226563668242377e+08 2.5621158770498841e-08 6.3973539460390825e-09 2.5621158770498841e-08 -2.7995393713971531e+08 1.6126386512562281e+06 6.3973539460390825e-09 1.6126386512562281e+06 -2.0934823225558456e+06  -1.2378397981099369e+08 3.1374622977699744e-08 1.0172513572121724e-08 3.1374622977699744e-08 -2.2771693615704924e+08 1.0944617398852347e+06 1.0172513572121724e-08 1.0944617398852347e+06 1.7903052023630622e+06  -1.4932636990631077e+08 2.1739270445902956e-08 4.7354976108546798e-09 2.1739270445902956e-08 -2.7447568315055376e+08 1.7033468495426557e+06 4.7354976108546798e-09 1.7033468495426557e+06 -4.0595021139671477e+06  -1.2128477261769742e+08 2.7365125627453321e-08 8.1680635422190068e-09 2.7365125627453321e-08 -2.2310143101842666e+08 -1.3197155909535375e+06 8.1680635422190068e-09 -1.3197155909535375e+06 1.2700372190095657e+06  -1.4521058903696409e+08 1.8157560328077971e-08 2.7774926936534114e-09 1.8157560328077971e-08 -2.6705787986792323e+08 7.4357049234585400e+04 2.7774926936534114e-09 7.4357049234585400e+04 4.0207939178725625e+04  -1.1934015948109181e+08 2.3247008540156847e-08 6.2865562250919758e-09 2.3247008540156847e-08 -2.1950003901557446e+08 -9.4617623624185566e+05 6.2865562250919758e-09 -9.4617623624185566e+05 5.9205204640058451e+05  -1.3985608024119762e+08 1.4677615319576760e-08 1.1657581002120876e-09 1.4677615319576760e-08 -2.5723775973489302e+08 -1.0492812064740516e+06 1.1657581002120876e-09 -1.0492812064740516e+06 7.8002542901715939e+05  -1.1733009573293132e+08 1.9409356603781975e-08 4.2888709591838966e-09 1.9409356603781975e-08 -2.1583794305683368e+08 -2.8723309573098724e+06 4.2888709591838966e-09 -2.8723309573098724e+06 1.5284183532040778e+06  -1.3722835193593132e+08 1.1150293757362247e-08 -5.8585134051069683e-10 1.1150293757362247e-08 -2.5239727213887703e+08 -3.0446189484332823e+06 -5.8585134051069683e-10 -3.0446189484332823e+06 5.6790092022441328e+05  -1.1379471040613244e+08 1.5681810184923906e-08 2.8597841258723648e-09 1.5681810184923906e-08 -2.0925172209767380e+08 -1.1465592844201124e+06 2.8597841258723648e-09 -1.1465592844201124e+06 -7.5263236526518967e+05  -1.3257236281211236e+08 7.3275156250158597e-09 -1.8956158789501312e-09 7.3275156250158597e-09 -2.4387592635877430e+08 3.5149009879428642e+06 -1.8956158789501312e-09 3.5149009879428642e+06 1.6900057100286337e+06  -1.0940952900448675e+08 1.2845036737625426e-08 1.2902096672511246e-09 1.2845036737625426e-08 -2.0125775662368336e+08 -4.6254183882097453e+06 1.2902096672511246e-09 -4.6254183882097453e+06 1.1633035384199547e+06  -1.1287077182306130e+08 3.6208503591719934e-09 -2.8634096098007680e-09 3.6208503591719934e-09 -2.0738554527320156e+08 -2.4960883939373833e+06 -2.8634096098007680e-09 -2.4960883939373833e+06 -5.2702739832788836e+06  -1.1874722780188730e+08 6.3718862455958299e-09 -1.9031356496840844e-09 6.3718862455958299e-09 -2.1830022514505625e+08 -2.0046594449163841e+06 -1.9031356496840844e-09 -2.0046594449163841e+06 -2.3668350370567716e+06  -9.0008104302402571e+07 8.2684090761771782e-09 -4.2977105224852209e-10 8.2684090761771782e-09 -1.6560290089507496e+08 -8.1976878952302588e+06 -4.2977105224852209e-10 -8.1976878952302588e+06 1.8735903727298763e+06  -1.0214188623512490e+08 1.3498536733505907e-09 -3.6934188642034284e-09 1.3498536733505907e-09 -1.8775346317180213e+08 -2.4855824267243831e+06 -3.6934188642034284e-09 -2.4855824267243831e+06 -2.5812420777192842e+06  -8.2238940203544348e+07 6.0258811042887079e-09 -1.4551707047335868e-09 6.0258811042887079e-09 -1.5130234041877446e+08 -1.2158703966947455e+07 -1.4551707047335868e-09 -1.2158703966947455e+07 1.5404515877163983e+06  -8.9991720406952560e+07 -3.1646538432991811e-10 -4.1749564469933609e-09 -3.1646538432991811e-10 -1.6547901747887617e+08 -3.3292452217429467e+06 -4.1749564469933609e-09 -3.3292452217429467e+06 -6.6310860893054039e+05  -7.4488352681435898e+07 3.7096866840349597e-09 -2.4477374307160778e-09 3.7096866840349597e-09 -1.3708776968041724e+08 -1.3818828794190623e+07 -2.4477374307160778e-09 -1.3818828794190623e+07 2.6095889104955462e+06  -7.6532418933316395e+07 -1.1627735311218551e-09 -4.5330166923169334e-09 -1.1627735311218551e-09 -1.4085752207608300e+08 -7.6148590166023821e+06 -4.5330166923169334e-09 -7.6148590166023821e+06 2.8941208576291231e+06  -6.5450533852298506e+07 1.9320825373885465e-09 -2.6415582988547949e-09 1.9320825373885465e-09 -1.2031267170150414e+08 -1.3233248371718891e+07 -2.6415582988547949e-09 -1.3233248371718891e+07 -1.5483592750330388e+06  -6.5006833521418788e+07 -2.4749350751946362e-09 -4.5472664574894850e-09 -2.4749350751946362e-09 -1.1966385298059876e+08 -5.4564888312119991e+06 -4.5472664574894850e-09 -5.4564888312119991e+06 2.9753814422983690e+06  -5.5043493802366778e+07 6.5464809700796202e-10 -3.0231834230411765e-09 6.5464809700796202e-10 -1.0125267377356841e+08 -1.4123115547315061e+07 -3.0231834230411765e-09 -1.4123115547315061e+07 6.0436227328380407e+05  -3.3403045746025007e+07 -2.0913296598769885e-09 -2.8132683083148468e-09 -2.0913296598769885e-09 -6.1380445389985338e+07 -6.5097466760285590e+06 -2.8132683083148468e-09 -6.5097466760285590e+06 -1.3800429182693975e+06  -4.5624976340671994e+07 -2.0152968433132734e-09 -3.2757868991396310e-09 -2.0152968433132734e-09 -8.3868806515249729e+07 -5.9377997574454481e+06 -3.2757868991396310e-09 -5.9377997574454481e+06 -1.0812654269384413e+06  -2.8607740151715063e+07 1.7258264987763784e-10 -2.1516213001680856e-09 1.7258264987763784e-10 -5.2521503262004904e+07 -1.7152756394129083e+07 -2.1516213001680856e-09 -1.7152756394129083e+07 -2.4598799063318279e+06  -1.7928129538564630e+07 -1.3274760918897253e-10 -1.7714793966762907e-09 -1.3274760918897253e-10 -3.2926655938501470e+07 -1.4907727556215147e+07 -1.7714793966762907e-09 -1.4907727556215147e+07 -1.2153633200671263e+06  -1.2005326690617022e+08 6.5605535693011063e-08 2.8675349806340220e-08 6.5605535693011063e-08 -2.2013797106694162e+08 1.1227987235383177e+07 2.8675349806340220e-08 1.1227987235383177e+07 -1.0386181256575765e+07  -1.8242731223368421e+08 7.1349626383827111e-08 2.5755493189910914e-08 7.1349626383827111e-08 -3.3122516660703993e+08 -8.2700673196663810e+06 2.5755493189910914e-08 -8.2700673196663810e+06 1.9472971961785987e+07  -1.2860988199543574e+08 7.1301795700943940e-08 3.0398011057807794e-08 7.1301795700943940e-08 -2.3698376698868188e+08 4.9074286325228754e+06 3.0398011057807794e-08 4.9074286325228754e+06 -5.9750222746517267e+06  -9.4460914192403838e+07 1.1571728146533633e-08 1.1152698670332926e-09 1.1571728146533633e-08 -1.7382568838699096e+08 -5.8352879474955685e+06 1.1152698670332926e-09 -5.8352879474955685e+06 2.7837294235396339e+06  -3.8280823777613431e+07 1.4251700867023139e-09 -2.3260450435362824e-09 1.4251700867023139e-09 -7.0403760958761856e+07 -2.0447044253887113e+07 -2.3260450435362824e-09 -2.0447044253887113e+07 4.3387842926635400e+04  -1.0947590212962161e+08 8.2351526683570130e-08 3.9516310569908894e-08 8.2351526683570130e-08 -2.0279528895253247e+08 1.8263134864525385e+07 3.9516310569908894e-08 1.8263134864525385e+07 -3.7845466678319201e+07  -8.6452866423916548e+07 7.9717582022884427e-08 3.6473910960830610e-08 7.9717582022884427e-08 -1.5847888824135637e+08 2.0320031492545821e+07 3.6473910960830610e-08 2.0320031492545821e+07 9.3709985658842511e+06  -6.9571245846170053e+07 7.7940972900402694e-08 3.7286884569888397e-08 7.7940972900402694e-08 -1.2798370615871258e+08 2.6899852020627189e+07 3.7286884569888397e-08 2.6899852020627189e+07 7.1594571318808768e+05  -9.4338961068699509e+07 5.8347235646001018e-08 2.5519755308146805e-08 5.8347235646001018e-08 -1.7366693803450659e+08 1.5102661757064084e+07 2.5519755308146805e-08 1.5102661757064084e+07 4.5612315324563971e+06  -9.8837721075685352e+07 4.6819162158508726e-08 1.9507661247359580e-08 4.6819162158508726e-08 -1.8182088274824888e+08 1.0186214957957815e+07 1.9507661247359580e-08 1.0186214957957815e+07 1.2875217457278175e+06  -8.7467915073020816e+07 7.1434159872634092e-08 3.2109123216233240e-08 7.1434159872634092e-08 -1.6104685599977991e+08 1.5010552818589702e+07 3.2109123216233240e-08 1.5010552818589702e+07 7.0680257430979181e+06  -9.4224730866682857e+07 2.7878936489555818e-08 1.0000194029209914e-08 2.7878936489555818e-08 -1.7333838545999444e+08 4.9949522950509386e+06 1.0000194029209914e-08 4.9949522950509386e+06 1.3513372066586728e+06  -9.2568657716169879e+07 2.3992392808907928e-08 7.7709900121628264e-09 2.3992392808907928e-08 -1.7036322185148254e+08 1.1365856082736864e+06 7.7709900121628264e-09 1.1365856082736864e+06 3.2593215524412594e+06  -8.9976926640051797e+07 2.0369137720260361e-08 5.9457921455757739e-09 2.0369137720260361e-08 -1.6555885759760919e+08 -1.9614331834630775e+06 5.9457921455757739e-09 -1.9614331834630775e+06 2.2333338554453580e+06  -9.2055964279857308e+07 1.6488952184102539e-08 3.7869948811739924e-09 1.6488952184102539e-08 -1.6927591697184291e+08 -6.8637311799071636e+06 3.7869948811739924e-09 -6.8637311799071636e+06 -6.4811117741837748e+05  -1.8710747377966046e+07 4.0696905581694252e-09 -8.2034209624764407e-10 4.0696905581694252e-09 -3.4280471076909289e+07 -3.2962575634690512e+07 -8.2034209624764407e-10 -3.2962575634690512e+07 -3.5286567533709942e+06  -5.7760442986097693e+07 8.0462473199999690e-09 -7.1223836767117004e-11 8.0462473199999690e-09 -1.0631436994889161e+08 -2.1010057007056311e+07 -7.1223836767117004e-11 -2.1010057007056311e+07 2.3620890533525813e+06  -5.0912462078310139e+07 5.9382202157498132e-09 -1.0387960878401133e-09 5.9382202157498132e-09 -9.3711557406336799e+07 -2.4432855650607493e+07 -1.0387960878401133e-09 -2.4432855650607493e+07 2.1264243741893903e+06  -4.5397504375367157e+07 4.0874495911109739e-09 -1.5751796807488732e-09 4.0874495911109739e-09 -8.3414238660041109e+07 -2.6165280932067819e+07 -1.5751796807488732e-09 -2.6165280932067819e+07 -2.0614210348599823e+06  -8.8822702945688561e+07 6.4879692215604088e-08 2.9316972854525888e-08 6.4879692215604088e-08 -1.6357549394253770e+08 1.9939866393732369e+07 2.9316972854525888e-08 1.9939866393732369e+07 4.4027326584731629e+06  -9.8080651594437435e+07 4.1686011151408126e-08 1.6863566703033924e-08 4.1686011151408126e-08 -1.8046074720177844e+08 8.9092419593945723e+06 1.6863566703033924e-08 8.9092419593945723e+06 2.1944812247887608e+06  -9.6710279042403787e+07 3.6804015598504658e-08 1.4390622139438451e-08 3.6804015598504658e-08 -1.7796421664269382e+08 7.6944611154263029e+06 1.4390622139438451e-08 7.6944611154263029e+06 2.8296886447456297e+06  -6.6581366195263386e+07 1.3476104860948538e-08 2.7432995314452748e-09 1.3476104860948538e-08 -1.2258433232114980e+08 -1.2358854558670554e+07 2.7432995314452748e-09 -1.2358854558670554e+07 3.6453448056275956e+06  -9.6001227862783328e+07 3.2236066233843383e-08 1.2014880662829930e-08 3.2236066233843383e-08 -1.7666323928009254e+08 5.5437475142303938e+06 1.2014880662829930e-08 5.5437475142303938e+06 2.9126948351603197e+06  -6.2940060545759156e+07 1.0426995839674909e-08 1.0492727459164226e-09 1.0426995839674909e-08 -1.1590567461432667e+08 -1.6960957962809876e+07 1.0492727459164226e-09 -1.6960957962809876e+07 4.1339364479934433e+06  -1.2202281363760758e+07 2.7106137923285855e-09 -7.4065890086638852e-10 2.7106137923285855e-09 -2.2242954349406142e+07 -2.7704195978257429e+07 -7.4065890086638852e-10 -2.7704195978257429e+07 -5.3635628009436242e+06  -5.6234849043003067e+07 8.9407881158288098e-08 4.4095962602984591e-08 8.9407881158288098e-08 -1.0418410600299573e+08 3.8340495462814718e+07 4.4095962602984591e-08 3.8340495462814718e+07 3.7143670387854311e+06  -9.7537068463199049e+07 5.2307027292883775e-08 2.2340827357996439e-08 5.2307027292883775e-08 -1.7947481417359975e+08 1.2455332463361010e+07 2.2340827357996439e-08 1.2455332463361010e+07 2.6567561374477693e+06  -2.1923120995433263e+07 6.0116872657025291e-09 -1.8614018770695242e-10 6.0116872657025291e-09 -4.0291273309167467e+07 -3.3169495730115272e+07 -1.8614018770695242e-10 -3.3169495730115272e+07 -7.4348970585400378e+05  -6.6873651862504948e+06 1.7322874920592033e-09 -5.2317394196139365e-10 1.7322874920592033e-09 -1.2052800302356556e+07 -2.2063738550625920e+07 -5.2317394196139365e-10 -2.2063738550625920e+07 -6.6538559109650096e+06  -1.6482731609667480e+08 8.6746608925249131e-08 3.5120271863331995e-08 8.6746608925249131e-08 -2.9415620881625098e+08 -2.9412104573771607e+07 3.5120271863331995e-08 -2.9412104573771607e+07 -1.9134571936225265e+07  -6.6929356581375659e+07 1.6410184848363949e-08 4.7188449936035986e-09 1.6410184848363949e-08 -1.2331685626706517e+08 -2.1335892019135221e+06 4.7188449936035986e-09 -2.1335892019135221e+06 6.1491403617589865e+06  -4.3887986027209252e+07 8.1667896366471644e-08 4.1061462146126353e-08 8.1667896366471644e-08 -8.1351071221546710e+07 5.3752542954188064e+07 4.1061462146126353e-08 5.3752542954188064e+07 1.6673206535790166e+07  -6.2462535522903472e+07 5.7675249448569553e-08 2.7390209642783611e-08 5.7675249448569553e-08 -1.1533716679464118e+08 3.4658861597529650e+07 2.7390209642783611e-08 3.4658861597529650e+07 1.2460809153037088e+07  -9.8571481604059517e+07 1.0770361244591887e-07 4.7363949491883540e-08 1.0770361244591887e-07 -2.2601024237710652e+08 7.3256646814771276e+06 4.7363949491883540e-08 7.3256646814771276e+06 2.0113422483677857e+07  -6.7759535279200673e+07 3.2497798437856536e-08 1.3778481915554049e-08 3.2497798437856536e-08 -1.2486017973178668e+08 1.5218077752107140e+07 1.3778481915554049e-08 1.5218077752107140e+07 6.5967430034151832e+06  -6.7392881759343490e+07 2.7983481726720243e-08 1.1283970441408366e-08 2.7983481726720243e-08 -1.2430327010516937e+08 1.3969446730699709e+07 1.1283970441408366e-08 1.3969446730699709e+07 9.7733995276773851e+06  -2.9384688525668427e+07 7.7448559012829931e-09 2.1089580450555929e-10 7.7448559012829931e-09 -5.4169717669109643e+07 -3.1386268433012113e+07 2.1089580450555929e-10 -3.1386268433012113e+07 3.4746831905926298e+06  -6.8058176711917669e+05 3.7966416331456391e-09 6.1255687484046875e-10 3.7966416331456391e-09 -8.4467302306690812e+05 -2.8060978106349789e+07 6.1255687484046875e-10 -2.8060978106349789e+07 -1.1011980559369553e+07  2.0153831447999107e+06 2.6051105077841762e-09 7.0722601160373452e-10 2.6051105077841762e-09 4.1474434995620209e+06 -2.0582655768657040e+07 7.0722601160373452e-10 -2.0582655768657040e+07 -1.1931259237227909e+07  -6.6210184047918133e+07 2.4363817164525983e-08 9.2961513484156468e-09 2.4363817164525983e-08 -1.2201876867969471e+08 7.5824638230405338e+06 9.2961513484156468e-09 7.5824638230405338e+06 6.8131509621018581e+06  -5.0730482950900175e+07 6.9881397788878934e-08 3.4585361118660310e-08 6.9881397788878934e-08 -9.3869280638000205e+07 4.7192992864694484e+07 3.4585361118660310e-08 4.7192992864694484e+07 1.5408333479720570e+07  -6.8157225868898809e+07 4.1766958630867266e-08 1.8642720332528622e-08 4.1766958630867266e-08 -1.2569186169053574e+08 2.2190692666264832e+07 1.8642720332528622e-08 2.2190692666264832e+07 9.3088841672089677e+06  -3.6817655493376911e+07 9.2718639942279783e-09 1.0499638897679555e-09 9.2718639942279783e-09 -6.7862947784890220e+07 -2.4923260864934396e+07 1.0499638897679555e-09 -2.4923260864934396e+07 4.1046128026786228e+06  -4.5074649110065915e+07 7.5871353925916373e-08 3.8209609924724193e-08 7.5871353925916373e-08 -8.3516800552847177e+07 5.4495360832689524e+07 3.8209609924724193e-08 5.4495360832689524e+07 1.6546000096514480e+07  -6.7704210328699872e+07 4.6565666763448591e-08 2.1345575410844280e-08 4.6565666763448591e-08 -1.2486355651285796e+08 2.6939958821373396e+07 2.1345575410844280e-08 2.6939958821373396e+07 9.4460778377006818e+06  -3.6267762565148331e+07 9.7015181873673543e-08 4.9561867426741927e-08 9.7015181873673543e-08 -7.0659116199092239e+07 6.4222658289303459e+07 4.9561867426741927e-08 6.4222658289303459e+07 1.7479197101030923e+07  -6.6138069434881531e+07 5.1862749985339745e-08 2.4192536118978918e-08 5.1862749985339745e-08 -1.2203378273343073e+08 3.0614578105301194e+07 2.4192536118978918e-08 3.0614578105301194e+07 1.0803331144839022e+07  -6.7440013751338080e+07 3.6718528608276000e-08 1.6142765169492638e-08 3.6718528608276000e-08 -1.2441952020135643e+08 2.2763360229534939e+07 1.6142765169492638e-08 2.2763360229534939e+07 1.0573781399048815e+07  -5.6251163441202037e+07 6.4076442195144744e-08 3.1180845502553098e-08 6.4076442195144744e-08 -1.0388785030738106e+08 3.9690549008354522e+07 3.1180845502553098e-08 3.9690549008354522e+07 1.2077699888580944e+07  -7.3914489178864002e+07 1.1975515301714178e-07 6.2410809730858035e-08 1.1975515301714178e-07 -1.2161252242258450e+08 -3.6955905156890459e+07 6.2410809730858035e-08 -3.6955905156890459e+07 -1.4201153524103212e+08  -6.6576456873021372e+07 2.0380296891738340e-08 7.0394302543508584e-09 2.0380296891738340e-08 -1.2266834747305903e+08 2.9550527910372843e+06 7.0394302543508584e-09 2.9550527910372843e+06 6.1628877897629617e+06  -5.7390497299270183e+06 6.8929932635416849e-09 8.2995631150426434e-10 6.8929932635416849e-09 -1.0415684471809678e+07 -3.7497291769129798e+07 8.2995631150426434e-10 -3.7497291769129798e+07 -3.7606279679690734e+06  -4.1619990828269348e+07 1.3765354809939397e-08 3.7069358023133764e-09 1.3765354809939397e-08 -7.6946182741863519e+07 -9.3000351040751524e+06 3.7069358023133764e-09 -9.3000351040751524e+06 1.0903462830845388e+07  -3.9894409740009509e+07 1.1439676911372181e-08 2.1466041320226692e-09 1.1439676911372181e-08 -7.3669288916999057e+07 -1.8967235021666504e+07 2.1466041320226692e-09 -1.8967235021666504e+07 8.1061839337706743e+06  -6.9858112225348912e+06 9.1655495911019211e-08 4.9805345395494509e-08 9.1655495911019211e-08 -1.3956671284511374e+07 1.1227323033886231e+08 4.9805345395494509e-08 1.1227323033