<?xml version="1.0"?>
<VTKFile type="UnstructuredGrid"  version="0.1"  >
<UnstructuredGrid>
<Piece  NumberOfPoints="10101" NumberOfCells="19808">
<Points>
<DataArray  type="Float64"  NumberOfComponents="3"  format="ascii">4.054103932234444e-23 9.668484844120507e-07 4.918726524140444e-08  4.05039329194145e-23 9.667857187595548e-07 4.945872435372525e-08  4.053188850666777e-23 9.669815769229369e-07 4.940278097243381e-08  4.056530826229038e-23 9.671204961754646e-07 4.92406818270239e-08  4.050537333608173e-23 9.669873641351116e-07 4.964739560935038e-08  4.047465830933096e-23 9.667477110252172e-07 4.968439886551487e-08  4.213239664262111e-23 9.665522719745353e-07 3.455738033466632e-08  4.209648610453712e-23 9.663157702113478e-07 3.464433194334632e-08  4.209498419649699e-23 9.664736208813649e-07 3.481571059834312e-08  4.202905465386593e-23 9.669133046878183e-07 3.584923493204844e-08  4.201636568197259e-23 9.667024088588895e-07 3.575263120130086e-08  4.199364101834488e-23 9.667468083613813e-07 3.600171627708436e-08  4.050039254686825e-23 9.666025133057534e-07 4.930740774088382e-08  4.057509323459371e-23 9.668314134701187e-07 4.886346392643973e-08  4.053082723725921e-23 9.666066408352682e-07 4.9037403949791e-08  4.05476916009498e-23 9.671898646041343e-07 4.946872703459145e-08  4.055882787078781e-23 9.665737785238864e-07 4.875233435295812e-08  4.189816144664103e-23 9.66746091735303e-07 3.686100317809993e-08  4.186309200165198e-23 9.665864192159398e-07 3.701720813750625e-08  4.187775385012511e-23 9.667981541501574e-07 3.709688088108365e-08  4.049048778005247e-23 9.663873524526028e-07 4.918146109601478e-08  4.191752959001222e-23 9.666941255283598e-07 3.663458424461811e-08  4.188405836999669e-23 9.665397564065131e-07 3.678169707075058e-08  4.205172578938783e-23 9.66878311362611e-07 3.561003817186411e-08  4.046930647734097e-23 9.665742826594294e-07 4.955917551683886e-08  4.044201047735455e-23 9.665702024906113e-07 4.980095585875582e-08  4.205643681984082e-23 9.664027009498198e-07 3.509199456908776e-08  4.206852570976105e-23 9.662813570108587e-07 3.486176358984652e-08  4.209301297976739e-23 9.66633887663274e-07 3.49937325221101e-08  4.051800373672673e-23 9.663757034788754e-07 4.892197041783749e-08  4.195746733131787e-23 9.665743885783101e-07 3.615512010084401e-08  4.197274292453497e-23 9.667912609159967e-07 3.623440212668986e-08  4.197841076679054e-23 9.665197150948065e-07 3.591180492095931e-08  4.200195011644936e-23 9.664770666525813e-07 3.565713286603009e-08  4.203995345311975e-23 9.666652445683628e-07 3.550300715607644e-08  4.207601929518653e-23 9.668470856784211e-07 3.535999604034919e-08  4.046331650467893e-23 9.663908948616112e-07 4.94297405963181e-08  4.206566192066895e-23 9.666360366051882e-07 3.524223790315209e-08  4.202782051846897e-23 9.664400855788234e-07 3.538713192648125e-08  4.04521314143797e-23 9.661792649673132e-07 4.931885703902746e-08  4.190275988410516e-23 9.664817449342765e-07 3.655523733457365e-08  4.193758748542527e-23 9.666351898508859e-07 3.639498310652801e-08  4.215848158711895e-23 9.665235754557057e-07 3.42937315231958e-08  4.212505158001392e-23 9.66364824043624e-07 3.443609084619648e-08  4.184208854195985e-23 9.666260848296041e-07 3.724605609765657e-08  4.04764691118071e-23 9.661615855195114e-07 4.908196310109549e-08  4.192229614003324e-23 9.664182459386035e-07 3.631577138906483e-08  3.704894367824063e-23 9.291990787123774e-07 4.299186082478721e-08  3.673289655118805e-23 9.281533333411749e-07 4.479281490083575e-08  3.695793890541615e-23 9.298395777971195e-07 4.44520580314918e-08  3.733177242473284e-23 9.304207376921051e-07 4.166602492989096e-08  3.719911778633508e-23 9.308501685530574e-07 4.329030255095743e-08  3.679480328848397e-23 9.300936750042505e-07 4.617555024587617e-08  3.647128412515278e-23 9.283707703360788e-07 4.736664714455544e-08  3.60854246820572e-23 9.267255160493978e-07 4.919690574615976e-08  3.628869553738912e-23 9.287397681309766e-07 4.938025673108233e-08  3.569473611955285e-23 9.255256531259931e-07 5.151605255178011e-08  3.599153402461576e-23 9.277670018348062e-07 5.108408339130184e-08  3.707242103949365e-23 9.31257294709724e-07 4.483861155135233e-08  3.741877039023056e-23 9.317905332045106e-07 4.225221243230138e-08  3.757406067509398e-23 9.31550826968658e-07 4.061377565835848e-08  4.054224029018837e-23 9.663326498325946e-07 4.86606133052795e-08  3.730702632592857e-23 9.322046181779891e-07 4.367279845848248e-08  3.750982852777915e-23 9.330323417870073e-07 4.267384222613236e-08  3.656805010457186e-23 9.299279082023245e-07 4.805219455309339e-08  3.644315920830489e-23 9.30393407828152e-07 4.964261136670062e-08  3.678339018513915e-23 9.311356135728374e-07 4.732028891040466e-08  3.7643431279271e-23 9.327298486952824e-07 4.116796253073864e-08  3.777901601996191e-23 9.326243451412419e-07 3.984122020139273e-08  3.718852053147789e-23 9.325817765811009e-07 4.511736216505286e-08  3.620636372127154e-23 9.295277543621742e-07 5.090982203505562e-08  3.667066206460647e-23 9.314429309203339e-07 4.864297090115151e-08  3.697655528765374e-23 9.318031286366321e-07 4.624792740678801e-08  3.741453695566951e-23 9.335570092476853e-07 4.405681986409939e-08  3.688929112676642e-23 9.323857392896254e-07 4.761654374469122e-08  3.654899159311823e-23 9.317052009691058e-07 5.000115113003628e-08  3.71004433566466e-23 9.331129376999168e-07 4.644185194736896e-08  3.761131738298219e-23 9.341324345790012e-07 4.28598046771769e-08  3.781930829969515e-23 9.336104125707162e-07 4.046436703888197e-08  3.676774035714313e-23 9.327414752448555e-07 4.906711170148544e-08  4.210135011531676e-23 9.668363144449761e-07 3.512106506270518e-08  3.701237325018114e-23 9.336817332467312e-07 4.780391249150402e-08  3.79619500140237e-23 9.336403573041074e-07 3.920950942927813e-08  3.770690654172098e-23 9.337950566037555e-07 4.166143610257781e-08  3.756594550842118e-23 9.347515574835643e-07 4.388760109647212e-08  3.72732188165452e-23 9.336687893160956e-07 4.544148056991156e-08  3.636515246209674e-23 9.308567250648476e-07 5.08085509097071e-08  3.660986291414512e-23 9.328448219182983e-07 5.05924919618403e-08  3.725882365985386e-23 9.344066525204656e-07 4.630900381890362e-08  3.620067801621963e-23 9.306719675347172e-07 5.210524748590491e-08  3.797682897818549e-23 9.344551259662505e-07 3.98902602965118e-08  3.742557577918e-23 9.345886375825174e-07 4.498901931603453e-08  3.771599579619788e-23 9.351526894191682e-07 4.293720019184006e-08  3.786886270103758e-23 9.34514148496711e-07 4.092175659803617e-08  3.641403151854613e-23 9.319397850655769e-07 5.145134750961299e-08  3.676605874579201e-23 9.33566182046378e-07 4.990696511151642e-08  3.777852238115891e-23 9.347411615087459e-07 4.196248287195527e-08  3.768516546434916e-23 9.356348522725495e-07 4.369705798727253e-08  3.689340994730613e-23 9.338176734682654e-07 4.901137888603561e-08  3.716910193579864e-23 9.348061611517237e-07 4.7516653896206e-08  3.624801155747243e-23 9.320069738763048e-07 5.301391118999613e-08  3.688853662305508e-23 9.345508669552003e-07 4.978846737553264e-08  3.649287624924813e-23 9.332712030766621e-07 5.20725953210788e-08  3.800488007977753e-23 9.351939753878112e-07 4.037644785671806e-08  3.670163695739338e-23 9.339220432168551e-07 5.084308616644687e-08  3.780386480327097e-23 9.359502280484935e-07 4.294328516614173e-08  3.702380670533154e-23 9.345883049698551e-07 4.860750080591805e-08  3.734211049656741e-23 9.354442769486117e-07 4.65964471134738e-08  3.792033747367662e-23 9.353364983983071e-07 4.128046296587985e-08  3.630259183841301e-23 9.333816847917965e-07 5.389700663967623e-08  3.810879883206638e-23 9.352131930131312e-07 3.945964857386831e-08  3.744319687968098e-23 9.353987818751668e-07 4.564044684538382e-08  3.785005420553027e-23 9.356095889675505e-07 4.218660893559195e-08  3.778114814646154e-23 9.363585342088862e-07 4.355620478081861e-08  3.714363991160391e-23 9.353422159613821e-07 4.828205023121538e-08  3.680909202960643e-23 9.348971861744073e-07 5.085035987764338e-08  3.756552420625857e-23 9.354587668791478e-07 4.459860524458068e-08  3.812399189810906e-23 9.358409673547539e-07 3.995057594235408e-08  3.665460241506309e-23 9.345066347443517e-07 5.185132718856792e-08  3.650953765965863e-23 9.342376156032894e-07 5.288893520427381e-08  3.787952524577489e-23 9.366423637429128e-07 4.295393217922643e-08  3.72625957465888e-23 9.356216571712254e-07 4.749003253283561e-08  3.797465719551893e-23 9.361138418374986e-07 4.156853784697562e-08  3.791828017035121e-23 9.363656454246165e-07 4.232814053316874e-08  3.695616421915901e-23 9.354699441368057e-07 5.00984093239107e-08  3.759403050128077e-23 9.3619778459691e-07 4.508086108306354e-08  3.821380520964545e-23 9.35882376151544e-07 3.918301834640778e-08  3.768493771901191e-23 9.362306989122621e-07 4.429495597461709e-08  3.804767122261425e-23 9.359465389478015e-07 4.074358306684002e-08  3.704271533601226e-23 9.35326589604151e-07 4.91754716360384e-08  3.647965769486686e-23 9.34956524688344e-07 5.387697908593248e-08  3.738930728257247e-23 9.361451572908592e-07 4.687221659999026e-08  3.74943906268471e-23 9.362709821771635e-07 4.605153486605848e-08  3.732453454459758e-23 9.363169640721263e-07 4.762744433847235e-08  3.688758599246424e-23 9.356496905061926e-07 5.089585344567426e-08  3.785739886404594e-23 9.369440123574251e-07 4.345487752275779e-08  3.771182446873775e-23 9.36843327832681e-07 4.466541058294305e-08  3.821824302604666e-23 9.363413750338055e-07 3.960204493208765e-08  3.664830609614711e-23 9.351915359599346e-07 5.259294060319835e-08  3.778571497086244e-23 9.368809664119602e-07 4.403750268655225e-08  3.716544769916465e-23 9.35982550208176e-07 4.87259573901446e-08  3.742338425858931e-23 9.367488565998516e-07 4.7168977796e-08  3.723066611431025e-23 9.359396519199995e-07 4.809562384167325e-08  3.802718532296704e-23 9.368206243702561e-07 4.180218906932963e-08  3.797999073612487e-23 9.370400030560735e-07 4.244665880257957e-08  3.794144267639824e-23 9.372943018451553e-07 4.304816764650276e-08  3.831663492303966e-23 9.361226557200345e-07 3.84970
[...]
<PointData  Vectors="f_25"> 
<DataArray  type="Float64"  Name="f_25"  NumberOfComponents="3" format="ascii">0.0000000000000000e+00 4.6350752847755691e-10 -2.4705912691941394e-11  0.0000000000000000e+00 4.6241344590481792e-10 -2.2670395353012994e-11  0.0000000000000000e+00 4.6584991712950818e-10 -2.3058496375084306e-11  0.0000000000000000e+00 4.6828504382415490e-10 -2.4253209093394334e-11  0.0000000000000000e+00 4.6595763571752585e-10 -2.1216398413386992e-11  0.0000000000000000e+00 4.6175230007714032e-10 -2.0975596289512422e-11  0.0000000000000000e+00 4.5750136619174310e-10 -1.3915127453044617e-10  0.0000000000000000e+00 4.5339290443086416e-10 -1.3868898274622420e-10  0.0000000000000000e+00 4.5614307974586867e-10 -1.3711236415684714e-10  0.0000000000000000e+00 4.6384151801982068e-10 -1.2821369829748511e-10  0.0000000000000000e+00 4.6016330547896961e-10 -1.2921797009375451e-10  0.0000000000000000e+00 4.6094875139132070e-10 -1.2715024308122013e-10  0.0000000000000000e+00 4.5919587505252411e-10 -2.3843120822461702e-11  0.0000000000000000e+00 4.6319834002866203e-10 -2.7151293655791941e-11  0.0000000000000000e+00 4.5926071242404253e-10 -2.5881414834216935e-11  0.0000000000000000e+00 4.6951012143575743e-10 -2.2525904422292921e-11  0.0000000000000000e+00 4.5867634242117326e-10 -2.8042010618278441e-11  0.0000000000000000e+00 4.6098286276042585e-10 -1.2020809959081992e-10  0.0000000000000000e+00 4.5821095401829939e-10 -1.1909936215905408e-10  0.0000000000000000e+00 4.6190411350700843e-10 -1.1826186910210467e-10  0.0000000000000000e+00 4.5542081384466141e-10 -2.4831382499481251e-11  0.0000000000000000e+00 4.6006469762170298e-10 -1.2208292545189033e-10  0.0000000000000000e+00 4.5738499341061676e-10 -1.2104119302317330e-10  0.0000000000000000e+00 4.6322000087377056e-10 -1.3019209445722116e-10  0.0000000000000000e+00 4.5870719704805647e-10 -2.1946933869383299e-11  0.0000000000000000e+00 4.5864121720998259e-10 -2.0122715460547451e-11  0.0000000000000000e+00 4.5492040031106984e-10 -1.3491981649994903e-10  0.0000000000000000e+00 4.5280305179521180e-10 -1.3693459207198976e-10  0.0000000000000000e+00 4.5893697940668703e-10 -1.3548155908750171e-10  0.0000000000000000e+00 4.5520964236701141e-10 -2.6796702577543397e-11  0.0000000000000000e+00 4.5795464201223130e-10 -1.2607826555711141e-10  0.0000000000000000e+00 4.6173503828367155e-10 -1.2522070502732154e-10  0.0000000000000000e+00 4.5699131863841581e-10 -1.2810807361511074e-10  0.0000000000000000e+00 4.5623757980330502e-10 -1.3022402798143643e-10  0.0000000000000000e+00 4.5950469057946605e-10 -1.3128819593768645e-10  0.0000000000000000e+00 4.6266435426942286e-10 -1.3225979942378630e-10  0.0000000000000000e+00 4.5548931733842144e-10 -2.2953478616275542e-11  0.0000000000000000e+00 4.5898481466279056e-10 -1.3344661947929058e-10  0.0000000000000000e+00 4.5558256042203124e-10 -1.3246540496276484e-10  0.0000000000000000e+00 4.5177906762447279e-10 -2.3825603283407085e-11  0.0000000000000000e+00 4.5636312173062020e-10 -1.2292526869407920e-10  0.0000000000000000e+00 4.5902545083994237e-10 -1.2407590932926507e-10  0.0000000000000000e+00 4.5699450387658414e-10 -1.4135418576600920e-10  0.0000000000000000e+00 4.5423913659027432e-10 -1.4035343747860603e-10  0.0000000000000000e+00 4.5891532814686131e-10 -1.1722222321166128e-10  0.0000000000000000e+00 4.5146358294648588e-10 -2.5622794218350105e-11  0.0000000000000000e+00 4.5524610982326955e-10 -1.2492487472940298e-10  0.0000000000000000e+00 1.7525787502457280e-11 -3.7670127904346553e-11  0.0000000000000000e+00 2.0293823447140757e-11 -2.9213685741736891e-11  0.0000000000000000e+00 1.6391384539391367e-11 -3.2806560471535962e-11  0.0000000000000000e+00 1.4365469230650274e-11 -4.5149882000011332e-11  0.0000000000000000e+00 1.3697597921409916e-11 -3.9172582315052438e-11  0.0000000000000000e+00 1.6201049249421561e-11 -2.6138057666534757e-11  0.0000000000000000e+00 2.0276692059744774e-11 -1.9683479087339124e-11  0.0000000000000000e+00 2.3908882001174469e-11 -1.1680308064591492e-11  0.0000000000000000e+00 1.9644514035201263e-11 -1.2133581147214462e-11  0.0000000000000000e+00 2.6417104804967872e-11 -3.1249032939730171e-12  0.0000000000000000e+00 2.1951214946983680e-11 -5.1281617634261289e-12  0.0000000000000000e+00 1.3011951087000353e-11 -3.3203036853674814e-11  0.0000000000000000e+00 1.1093064193089730e-11 -4.5239211698636907e-11  0.0000000000000000e+00 1.1308507845758058e-11 -5.1819490338667535e-11  0.0000000000000000e+00 4.5444805205776011e-10 -2.8783760549734835e-11  0.0000000000000000e+00 1.0267281251201588e-11 -3.9693195017137531e-11  0.0000000000000000e+00 7.7962892871686920e-12 -4.5563048880336425e-11  0.0000000000000000e+00 1.6749894768908062e-11 -1.8279652412853217e-11  0.0000000000000000e+00 1.5687636866431540e-11 -1.1921144137655336e-11  0.0000000000000000e+00 1.3655213749221109e-11 -2.2325594399151253e-11  0.0000000000000000e+00 8.3535252325935317e-12 -5.1829064561721222e-11  0.0000000000000000e+00 8.3280090790188946e-12 -5.7523505042072861e-11  0.0000000000000000e+00 9.4401101935161084e-12 -3.3704335873059014e-11  0.0000000000000000e+00 1.7914114857265420e-11 -6.3024323310072905e-12  0.0000000000000000e+00 1.2916197329937398e-11 -1.6817953601118934e-11  0.0000000000000000e+00 1.1736112655103034e-11 -2.7695985646712991e-11  0.0000000000000000e+00 6.4766616274688370e-12 -3.9973282605145044e-11  0.0000000000000000e+00 1.0247133999416531e-11 -2.2098070156702375e-11  0.0000000000000000e+00 1.2232224530101790e-11 -1.0947310633796773e-11  0.0000000000000000e+00 8.0268960289026666e-12 -2.8207827701196877e-11  0.0000000000000000e+00 4.5879415072367120e-12 -4.6562595931677083e-11  0.0000000000000000e+00 5.7440549694207282e-12 -5.6861406309290956e-11  0.0000000000000000e+00 9.2873020706773304e-12 -1.5685773911815913e-11  0.0000000000000000e+00 4.6246606584473189e-10 -1.3421982720095964e-10  0.0000000000000000e+00 6.4264387962909528e-12 -2.2293957626645276e-11  0.0000000000000000e+00 5.3829350871254084e-12 -6.2730891435192092e-11  0.0000000000000000e+00 5.4308545355200384e-12 -5.1647146551862571e-11  0.0000000000000000e+00 2.7690957688817658e-12 -4.2529845844993399e-11  0.0000000000000000e+00 6.2671820673010729e-12 -3.3560822031582106e-11  0.0000000000000000e+00 1.4535234595781461e-11 -7.1096161526346179e-12  0.0000000000000000e+00 9.0094418539206268e-12 -8.6765928140261901e-12  0.0000000000000000e+00 4.0549615196197713e-12 -3.0211225300462657e-11  0.0000000000000000e+00 1.5125215727560900e-11 -1.4924459580030296e-12  0.0000000000000000e+00 3.1630929713238435e-12 -6.1399525516553425e-11  0.0000000000000000e+00 3.3898115298070524e-12 -3.6905595108035483e-11  0.0000000000000000e+00 1.3972549699071754e-12 -4.7861190218333507e-11  0.0000000000000000e+00 3.1639534731844965e-12 -5.6578038878131137e-11  0.0000000000000000e+00 1.1639303358772814e-11 -4.5293093335801432e-12  0.0000000000000000e+00 6.8431587179047874e-12 -1.2170890270143255e-11  0.0000000000000000e+00 2.6087113737643235e-12 -5.1964530948065891e-11  0.0000000000000000e+00 -1.1502732264191296e-13 -4.4792112072980581e-11  0.0000000000000000e+00 6.0177133946933720e-12 -1.6599217719732100e-11  0.0000000000000000e+00 2.8292250815242502e-12 -2.4622795855994566e-11  0.0000000000000000e+00 1.1528903737747029e-11 2.5066270479741160e-12  0.0000000000000000e+00 3.7425287673924432e-12 -1.3206145912653865e-11  0.0000000000000000e+00 7.7985852572544280e-12 -1.8165378746506180e-12  0.0000000000000000e+00 9.8135752022852451e-13 -6.0639916130331960e-11  0.0000000000000000e+00 5.7650106273583665e-12 -7.8141087386637403e-12  0.0000000000000000e+00 -1.2228124609974098e-12 -4.9127410758125772e-11  0.0000000000000000e+00 3.5800557074311385e-12 -1.9058172518456408e-11  0.0000000000000000e+00 6.8139046106113200e-13 -2.9842492731183790e-11  0.0000000000000000e+00 6.4895756156366891e-13 -5.6446674577560512e-11  0.0000000000000000e+00 7.4740294659748552e-12 6.8332319682760510e-12  0.0000000000000000e+00 7.6790206417175188e-13 -6.5195522986693739e-11  0.0000000000000000e+00 8.0397366248193506e-13 -3.4633414156275331e-11  0.0000000000000000e+00 -1.4893272409176484e-13 -5.2403507320221826e-11  0.0000000000000000e+00 -2.5702588833837790e-12 -4.6597505745636301e-11  0.0000000000000000e+00 1.0901847151359980e-12 -2.1198407670421592e-11  0.0000000000000000e+00 2.6204868635815508e-12 -8.0475401492076409e-12  0.0000000000000000e+00 5.3798878453363714e-13 -3.9979223221542579e-11  0.0000000000000000e+00 -1.1477570995127772e-12 -6.4153843046553099e-11  0.0000000000000000e+00 3.9162073833706454e-12 -2.9937552448869939e-12  0.0000000000000000e+00 4.8183881532791469e-12 2.1056060985003693e-12  0.0000000000000000e+00 -3.5863349120860172e-12 -5.0186545284532656e-11  0.0000000000000000e+00 1.0946553345118015e-13 -2.5451244060330325e-11  0.0000000000000000e+00 -1.8685418855369408e-12 -5.6467111990146250e-11  0.0000000000000000e+00 -2.6667464649882785e-12 -5.2995522028512914e-11  0.0000000000000000e+00 6.9977404522095752e-13 -1.2044717297677873e-11  0.0000000000000000e+00 -1.9316946485360814e-12 -3.8458927351289573e-11  0.0000000000000000e+00 -1.4074087283871867e-12 -6.8117365589488161e-11  0.0000000000000000e+00 -2.0852435374218255e-12 -4.2576253139951798e-11  0.0000000000000000e+00 -1.3899731109796555e-12 -6.0356175153985908e-11  0.0000000000000000e+00 1.1740396578539726e-12 -1.6663683483367557e-11  0.0000000000000000e+00 2.4596966436740113e-12 7.1190030713422122e-12  0.0000000000000000e+00 -1.7000773633275977e-12 -2.9108372970125843e-11  0.0000000000000000e+00 -2.1454127212606301e-12 -3.3498006707981702e-11  0.0000000000000000e+00 -2.2854767301408481e-12 -2.5314225298190104e-11  0.0000000000000000e+00 8.3256878147979701e-14 -8.0174188753987178e-12  0.0000000000000000e+00 -4.6199422172191747e-12 -4.8009695737373519e-11  0.0000000000000000e+00 -4.2034187858290164e-12 -4.1454846085335334e-11  0.0000000000000000e+00 -2.8432879378603794e-12 -6.7030544387577677e-11  0.0000000000000000e+00 1.6775017202241019e-12 6.8136308801881622e-13  0.0000000000000000e+00 -4.3645366759000929e-12 -4.4828535556704924e-11  0.0000000000000000e+00 -1.0758371931567511e-12 -1.9349338696112292e-11  0.0000000000000000e+00 -3.8177630462399688e-12 -2.8090561780666480e-11  0.0000000000000000e+00 -9.5539005146271267e-13 -2.2581733907257648e-11  0.0000000000000000e+00 -4.2630672271012738e-12 -5.6548770256093963e-11  0.0000000000000000e+00 -5.0009506643162733e-12 -5.3517787059509191e-11  0.0000000000000000e+00 -5.8833041706761114e-12 -5.0717286719235298e-11  0.0000000000000000e+00 -2.3165663995806195e-12 -7.2168688328416669e-11  0.0000000000000000e+00 -3.5750061004936890e-12 -7.0461016215452361e-11  0.0000000000000000e+00 9.9735932398504163e-13 -3.9839396006507996e-12  0.0000000000000000e+00 -3.4475467048160450e-12 -6.4080284374533987e-11  0.0000000000000000e+00 -3.6117551579411596e-12 -5.9928725088206819e-11  0.0000000000000000e+00 -1.4974643292726335e-12 -1.5274071164360358e-11  0.0000000000000000e+00 -4.4843892313585697e-12 -3.7983072191972461e-11  0.0000000000000000e+00 -3.6157579494334257e-12 -3.1314976011364657e-11  0.0000000000000000e+00 -2.2899925282659290e-12 -1.0574486867122140e-11  0.0000000000000000e+00 -4.3999181758702492e-12 -2.4728857747790804e-11  0.0000000000000000e+00 -5.5611833343970345e-12 -8.4483279639535157e-11  0.0000000000000000e+00 -4.0918698875913642e-12 -8.0310383609563546e-11  0.0000000000000000e+00 -6.1348674981833582e-12 -8.1691225057051339e-11  0.0000000000000000e+00 -2.8844930587338064e-12 -2.1968231249814793e-11  0.0000000000000000e+00 -3.4227723227018880e-12 -1.8653737324587165e-11  0.0000000000000000e+00 -6.4648464981679846e-12 -5.6573060115295607e-11  0.0000000000000000e+00 -1.7844385526879694e-12 -5.6662853342422806e-12  0.0000000000000000e+00 -6.0202003601406817e-12 -4.0942980423302891e-11  0.0000000000000000e+00 -5.2980055744084700e-12 -3.4313105501782977e-11  0.0000000000000000e+00 -1.1162793145811143e-12 -1.0788114937138526e-12  0.0000000000000000e+00 -7.1793651727997424e-12 -5.3866210901486351e-11  0.0000000000000000e+00 -5.7917374247726609e-12 -2.7381178925773157e-11  0.0000000000000000e+00 -6.0946478775392430e-12 -4.3970929696490449e-11  0.0000000000000000e+00 -5.8128922087715253e-12 -5.9669844871647528e-11  0.0000000000000000e+00 -6.5328927828720372e-12 -4.7407766685427657e-11  0.0000000000000000e+00 -7.3707219091719719e-12 -8.5182339590280398e-11  0.0000000000000000e+00 -5.2480116901258753e-12 -7.7973408429380079e-11  0.0000000000000000e+00 -3.1431715765161852e-12 -7.6249751802700849e-11  0.0000000000000000e+00 -4.6612570091496832e-12 -6.8416607566138238e-11  0.0000000000000000e+00 -4.0460802241488124e-12 -1.4778998301415855e-11  0.0000000000000000e+00 -6.8377430196282673e-12 -3.8156879898109769e-11  0.0000000000000000e+00 -4.5552132008664299e-12 -7.4417418676321101e-11  0.0000000000000000e+00 -5.4576142224948502e-12 -3.0802436312020886e-11  0.0000000000000000e+00 -7.5753193754960706e-12 -4.3114920419832680e-11  0.0000000000000000e+00 -4.0142423076113967e-12 -7.1867759980921741e-12  0.0000000000000000e+00 -7.1931170865805830e-12 -2.9994885211276921e-11  0.0000000000000000e+00 -6.3210766494397702e-12 -2.4396469971713563e-11  0.0000000000000000e+00 -7.2821263489903537e-13 3.8431400868279999e-12  0.0000000000000000e+00 -9.5735367567151744e-13 8.8303224121923390e-12  0.0000000000000000e+00 -7.7745016882978551e-12 -5.9222032196250617e-11  0.0000000000000000e+00 -7.9102423251136373e-12 -8.2640538132359547e-11  0.0000000000000000e+00 -5.0990545261691390e-12 -6.2678234243772167e-11  0.0000000000000000e+00 -6.0749906727953958e-12 -1.8394212352531558e-11  0.0000000000000000e+00 -5.7651476814341818e-12 -7.2333713940624674e-11  0.0000000000000000e+00 -5.0465347097978923e-12 -2.1715189842320391e-11  0.0000000000000000e+00 -3.5860256535653368e-12 -3.3250717920022672e-12  0.0000000000000000e+00 -4.9831632481569461e-12 -1.0965239257819860e-11  0.0000000000000000e+00 -7.8489611060386191e-12 -4.5769796425708249e-11  0.0000000000000000e+00 -7.0903522658396877e-12 -3.2884675559762308e-11  0.0000000000000000e+00 -7.5379471930487245e-12 -4.0810562165004406e-11  0.0000000000000000e+00 -7.9334115259600928e-12 -5.1008363188634776e-11  0.0000000000000000e+00 -5.5798189186012536e-12 -4.8186353958439553e-12  0.0000000000000000e+00 -7.5925898004004705e-12 -2.7057628799587656e-11  0.0000000000000000e+00 -8.6341573828164417e-12 -5.6791821691454042e-11  0.0000000000000000e+00 -7.3063336597331080e-12 -3.5466477990350619e-11  0.0000000000000000e+00 -9.0119763169629880e-12 -8.5681691315275052e-11  0.0000000000000000e+00 -6.6239786068479494e-12 -1.4468398714117744e-11  0.0000000000000000e+00 -6.7430381455130251e-12 -7.0028058093117989e-11  0.0000000000000000e+00 -6.9287148989852605e-12 -7.9532137449675474e-11  0.0000000000000000e+00 -3.4172202449316079e-12 1.4888709087902145e-12  0.0000000000000000e+00 -7.5933540193298688e-12 -6.1463605540580425e-11  0.0000000000000000e+00 -2.9817146408889356e-12 5.9839133704578782e-12  0.0000000000000000e+00 -5.6971865717533798e-12 -6.6298879082884207e-11  0.0000000000000000e+00 -6.8311412583325137e-12 -7.6484764347371643e-11  0.0000000000000000e+00 -9.1756040958391472e-12 -4.4543941820456716e-11  0.0000000000000000e+00 -6.9987191913944869e-12 -2.1812856365874284e-11  0.0000000000000000e+00 -8.4548297303233395e-12 -4.8227265846743443e-11  0.0000000000000000e+00 -8.4850517201395629e-12 -3.1942849082068510e-11  0.0000000000000000e+00 -8.7483961244822071e-12 -3.4689633548353421e-11  0.0000000000000000e+00 -8.8487321821055166e-12 -6.1387901627836332e-11  0.0000000000000000e+00 -6.4827716230824237e-12 -6.2284187950516535e-11  0.0000000000000000e+00 -6.1743522891697008e-12 -8.1966379109803873e-12  0.0000000000000000e+00 -7.7413632505119770e-12 -7.3588240906821685e-11  0.0000000000000000e+00 -8.7978071057393931e-12 -2.9466093972996240e-11  0.0000000000000000e+00 -8.6745986043337279e-12 -3.9703708580591219e-11  0.0000000000000000e+00 -9.5107715966860131e-12 -5.0352763690392318e-11  0.0000000000000000e+00 -7.6528823070484695e-12 -6.3574420539014060e-11  0.0000000000000000e+00 -9.3554701760857283e-12 -8.3357654367564103e-11  0.0000000000000000e+00 -8.6475245847853953e-12 -3.7369106208870404e-11  0.0000000000000000e+00 -9.4994174914706492e-12 -4.6814473653654594e-11  0.0000000000000000e+00 -8.3002424530916320e-12 -2.4358410476341239e-11  0.0000000000000000e+00 -6.7826060752183927e-12 -6.4838397048162699e-11  0.0000000000000000e+00 -7.6677390051938618e-12 -6.7832022937638167e-11  0.0000000000000000e+00 -9.3255174595281664e-12 -2.6999698251484501e-11  0.0000000000000000e+00 -9.5131173960481279e-12 -5.2296358250974231e-11  0.0000000000000000e+00 -8.8947716035855672e-12 -4.2244915215725390e-11  0.0000000000000000e+00 -5.4853950980459155e-12 -1.3886524283818600e-12  0.0000000000000000e+00 -9.3031290933135498e-12 -5.9437232537790139e-11  0.0000000000000000e+00 -9.0000665470458901e-12 -5.4229167367553524e-11  0.0000000000000000e+00 -7.2499298998318739e-12 -1.1309162820456231e-11  0.0000000000000000e+00 -8.1533025795396495e-12 -1.6843425535234259e-11  0.0000000000000000e+00 -1.0406285200960792e-11 -8.6114301358245831e-11  0.0000000000000000e+00 -8.8138353005985819e-12 -6.3507903963268374e-11  0.0000000000000000e+00 -8.7556607482138019e-12 -7.1209677509143554e-11  0.0000000000000000e+00 -8.5726601181344373e-12 -7.9913056765263590e-11  0.0000000000000000e+00 -1.0733753965170528e-11 -5.1969972269296306e-11  0.0000000000000000e+00 -1.0095623706344264e-11 -4.1306786437078258e-11  0.0000000000000000e+00 -1.0333397071987460e-11 -4.3564211906503961e-11  0.0000000000000000e+00 -7.1388427913263278e-12 -3.1047710527097505e-12  0.0000000000000000e+00 -9.8165380506544628e-12 -4.8690539284409481e-11  0.0000000000000000e+00 -1.0057375982614965e-11 -6.1427837790888218e-11  0.0000000000000000e+00 -1.0110992785121505e-11 -5.8233410228721520e-11  0.0000000000000000e+00 -1.0705090413486601e-11 -8.3853700519192607e-11  0.0000000000000000e+00 -1.0566943485747976e-11 -5.4008568841071266e-11  0.0000000000000000e+00 -4.7932831473719807e-12 4.4346748045461742e-12  0.0000000000000000e+00 -8.0287318699037864e-12 -8.7770521355747105e-12  0.0000000000000000e+00 -8.9390020552333772e-12 -7.6889689769821790e-11  0.0000000000000000e+00 -8.4341477051680034e-12 -6.5741104659713039e-11  0.0000000000000000e+00 -7.3814182071819739e-12 -5.9871246076062378e-12  0.0000000000000000e+00 -9.4578195391503892e-12 -6.8553452948759155e-11  0.0000000000000000e+00 -9.4137030027831880e-12 -7.4522179934149557e-11  0.0000000000000000e+00 -8.8792068682412634e-12 -1.4137301695598514e-11  0.0000000000000000e+00 -9.6206638601910333e-12 -3.3179913047641335e-11  0.0000000000000000e+00 -1.0882070743461779e-11 -4.5821016607788838e-11  0.0000000000000000e+00 -1.0425173853537752e-11 -5.6315225750588789e-11  0.0000000000000000e+00 -1.0820939594908323e-11 -4.8008484965492379e-11  0.0000000000000000e+00 -1.0060513615484328e-11 -2.5201481366590365e-11  0.0000000000000000e+00 -9.9780388648092693e-12 -3.8999600032237034e-11  0.0000000000000000e+00 -7.3765939701909759e-12 -1.7201688878146660e-14  0.0000000000000000e+00 -1.0914261028833744e-11 -6.0336041228763898e-11  0.0000000000000000e+00 -9.5137496728036741e-12 -2.3405718542567109e-11  0.0000000000000000e+00 -9.2036342597543356e-12 -1.1148371748585093e-11  0.0000000000000000e+00 -1.0315005089621691e-11 -2.9185752653675985e-11  0.0000000000000000e+00 -1.0035061011301780e-11 -6.3312636232621950e-11  0.0000000000000000e+00 -1.0244713615621245e-11 -7.1229676622870545e-11  0.0000000000000000e+00 -1.1602630352157858e-11 -8.5771886634965572e-11  0.0000000000000000e+00 -9.8899874208013113e-12 -3.1347513583766089e-11  0.0000000000000000e+00 -1.0359222140394792e-11 -3.4944897715712985e-11  0.0000000000000000e+00 -1.0039834209974617e-11 -3.6949007208579079e-11  0.0000000000000000e+00 -5.9156578563126077e-12 2.0397823109062428e-12  0.0000000000000000e+00 -1.0814355233889840e-11 -5.0029679178276463e-11  0.0000000000000000e+00 -1.0926453201328564e-11 -2.6988472868541173e-11  0.0000000